/*--------------------------------*- C++ -*----------------------------------*\
| =========                 |                                                 |
| \\      /  F ield         | OpenFOAM: The Open Source CFD Toolbox           |
|  \\    /   O peration     | Version:  2.4.x                                 |
|   \\  /    A nd           | Web:      www.OpenFOAM.org                      |
|    \\/     M anipulation  |                                                 |
\*---------------------------------------------------------------------------*/
FoamFile
{
    version     2.0;
    format      ascii;
    class       volScalarField;
    location    "10";
    object      gradTy;
}
// * * * * * * * * * * * * * * * * * * * * * * * * * * * * * * * * * * * * * //

dimensions      [0 -1 0 1 0 0 0];

internalField   nonuniform List<scalar> 
6768
(
0.0812755
0.0812755
0.115148
0.248797
0.115148
0.248797
0.173549
0.298811
0.517656
0.173549
0.298811
0.517656
0.19235
0.409365
0.569173
0.823219
0.19235
0.409365
0.569173
0.823219
0.210312
0.466104
0.827907
0.848354
1.15359
0.210312
0.466104
0.827907
0.848354
1.15359
0.240332
0.424885
0.86129
1.24957
1.35301
1.08526
1.49121
0.240332
0.424885
0.86129
1.24957
1.35301
1.08526
1.49121
0.356008
0.630495
0.990162
1.45613
1.34587
1.6055
1.86949
1.85255
0.356008
0.630495
0.990162
1.45613
1.34587
1.6055
1.86949
1.85255
0.340993
0.657726
1.07711
1.55003
2.09242
1.64019
1.93945
2.48241
2.31862
0.340993
0.657726
1.07711
1.55003
2.09242
1.64019
1.93945
2.48241
2.31862
0.312176
0.671789
1.12868
1.58067
2.07709
2.65671
1.97525
2.27658
2.71507
3.14858
2.81816
0.312176
0.671789
1.12868
1.58067
2.07709
2.65671
1.97525
2.27658
2.71507
3.14858
2.81816
0.254738
0.662242
1.17926
1.58324
1.95064
2.43964
3.43615
3.05442
2.29301
2.65148
3.15219
3.63605
3.35032
0.254738
0.662242
1.17926
1.58324
1.95064
2.43964
3.43615
3.05442
2.29301
2.65148
3.15219
3.63605
3.35032
0.130081
0.617113
1.2435
1.80588
2.31525
2.9582
3.98753
3.72719
3.48721
3.88232
3.06227
3.61593
4.10171
0.130081
0.617113
1.2435
1.80588
2.31525
2.9582
3.98753
3.72719
3.48721
3.88232
3.06227
3.61593
4.10171
0.197059
0.482678
1.14771
1.92616
2.51318
2.78257
3.24791
4.48517
4.3533
4.06111
3.74661
4.40851
3.50188
4.15317
4.54251
0.197059
0.482678
1.14771
1.92616
2.51318
2.78257
3.24791
4.48517
4.3533
4.06111
3.74661
4.40851
3.50188
4.15317
4.54251
0.261331
0.485474
0.800062
1.19483
1.83841
2.44355
3.01551
3.50698
4.95099
5.05595
4.75566
4.46563
4.1582
4.87331
3.96074
4.7575
5.08965
0.261331
0.485474
0.800062
1.19483
1.83841
2.44355
3.01551
3.50698
4.95099
5.05595
4.75566
4.46563
4.1582
4.87331
3.96074
4.7575
5.08965
0.397478
0.661815
1.2461
1.8901
2.51476
3.19
3.73515
5.47106
5.88456
5.48797
5.19299
4.90442
4.4582
5.39976
4.27687
4.68805
5.41035
5.67708
0.397478
0.661815
1.2461
1.8901
2.51476
3.19
3.73515
5.47106
5.88456
5.48797
5.19299
4.90442
4.4582
5.39976
4.27687
4.68805
5.41035
5.67708
0.133257
0.431864
1.09748
1.92142
2.56323
3.25071
3.92644
6.09537
6.69228
6.17424
5.95172
5.62132
5.28883
4.67373
5.83504
6.17173
5.11842
6.01126
6.23833
0.133257
0.431864
1.09748
1.92142
2.56323
3.25071
3.92644
6.09537
6.69228
6.17424
5.95172
5.62132
5.28883
4.67373
5.83504
6.17173
5.11842
6.01126
6.23833
0.175073
0.431499
0.742936
1.08595
1.69414
2.5124
3.20638
3.9886
6.76009
7.30244
7.00116
6.71749
6.54694
6.01287
5.45714
4.70238
6.62289
5.62325
6.65588
6.86537
0.175073
0.431499
0.742936
1.08595
1.69414
2.5124
3.20638
3.9886
6.76009
7.30244
7.00116
6.71749
6.54694
6.01287
5.45714
4.70238
6.62289
5.62325
6.65588
6.86537
0.175505
0.256423
0.43075
0.984739
1.72076
2.39978
3.10762
3.95206
7.42013
7.97797
7.76653
7.50219
7.27906
7.10848
5.88188
6.3704
5.23747
4.69312
7.06605
6.03282
6.86745
7.22124
7.59474
0.175505
0.256423
0.43075
0.984739
1.72076
2.39978
3.10762
3.95206
7.42013
7.97797
7.76653
7.50219
7.27906
7.10848
5.88188
6.3704
5.23747
4.69312
7.06605
6.03282
6.86745
7.22124
7.59474
0.279625
0.560315
0.915854
0.901111
1.41514
2.23848
3.02769
3.9133
8.10887
8.70056
8.54937
8.28429
7.99006
7.61839
7.33813
6.32875
6.90639
7.7147
5.51572
4.75731
7.45834
8.51584
7.44696
7.17462
7.75504
8.24775
0.279625
0.560315
0.915854
0.901111
1.41514
2.23848
3.02769
3.9133
8.10887
8.70056
8.54937
8.28429
7.99006
7.61839
7.33813
6.32875
6.90639
7.7147
5.51572
4.75731
7.45834
8.51584
7.44696
7.17462
7.75504
8.24775
0.366359
0.593181
0.685081
0.926424
1.51049
1.96934
2.83063
3.95966
8.76751
9.43728
9.42367
9.12152
8.77435
8.40774
8.06492
6.2454
6.65421
7.33427
8.71305
7.7328
5.53873
4.71786
9.29849
7.42118
8.27337
8.82581
0.366359
0.593181
0.685081
0.926424
1.51049
1.96934
2.83063
3.95966
8.76751
9.43728
9.42367
9.12152
8.77435
8.40774
8.06492
6.2454
6.65421
7.33427
8.71305
7.7328
5.53873
4.71786
9.29849
7.42118
8.27337
8.82581
0.369443
0.55271
0.894474
1.33027
1.90718
2.35258
3.00569
3.76438
9.31417
10.109
10.5201
10.0428
9.63222
9.25939
8.95126
6.24071
7.13135
7.8924
9.46919
9.17309
8.58075
5.53686
4.73373
9.8805
7.81238
8.88803
9.29006
0.369443
0.55271
0.894474
1.33027
1.90718
2.35258
3.00569
3.76438
9.31417
10.109
10.5201
10.0428
9.63222
9.25939
8.95126
6.24071
7.13135
7.8924
9.46919
9.17309
8.58075
5.53686
4.73373
9.8805
7.81238
8.88803
9.29006
0.191215
0.432026
0.825961
1.59606
2.25063
3.10615
4.0461
9.82241
10.7249
11.6089
10.9277
10.5054
10.1117
9.76322
6.37612
7.2974
8.23985
10.2061
9.69697
9.6687
8.88135
9.98628
5.58317
4.80987
10.2742
8.26558
9.50489
9.79456
0.191215
0.432026
0.825961
1.59606
2.25063
3.10615
4.0461
9.82241
10.7249
11.6089
10.9277
10.5054
10.1117
9.76322
6.37612
7.2974
8.23985
10.2061
9.69697
9.6687
8.88135
9.98628
5.58317
4.80987
10.2742
8.26558
9.50489
9.79456
0.153801
0.566839
0.851151
1.5855
2.07777
2.82407
3.50644
3.99317
10.2212
11.6611
12.3529
11.742
11.3625
10.9851
10.6082
6.43164
7.23828
8.10176
11.1215
10.5951
10.2509
8.85125
10.1609
11.2414
5.60914
4.81658
10.7952
8.46322
8.93197
10.2807
10.4169
0.153801
0.566839
0.851151
1.5855
2.07777
2.82407
3.50644
3.99317
10.2212
11.6611
12.3529
11.742
11.3625
10.9851
10.6082
6.43164
7.23828
8.10176
11.1215
10.5951
10.2509
8.85125
10.1609
11.2414
5.60914
4.81658
10.7952
8.46322
8.93197
10.2807
10.4169
0.207077
0.435501
1.25541
1.40239
1.67414
2.99657
3.46992
4.15286
10.7301
11.549
12.6714
13.0574
12.6387
12.2063
11.8505
11.4998
6.39512
7.14643
7.96536
12.088
11.7559
11.2569
8.59387
9.44112
10.5999
11.2887
12.0655
5.60715
4.89485
11.1133
11.2497
9.33861
10.7458
10.8239
0.207077
0.435501
1.25541
1.40239
1.67414
2.99657
3.46992
4.15286
10.7301
11.549
12.6714
13.0574
12.6387
12.2063
11.8505
11.4998
6.39512
7.14643
7.96536
12.088
11.7559
11.2569
8.59387
9.44112
10.5999
11.2887
12.0655
5.60715
4.89485
11.1133
11.2497
9.33861
10.7458
10.8239
0.302653
0.725023
1.10294
1.2925
2.01622
2.38519
2.73258
3.54296
4.20811
11.5317
12.3741
13.2005
13.694
13.4186
13.0654
12.7151
12.399
6.36575
7.06689
7.8354
12.9852
12.7702
12.5165
8.40041
9.05111
9.68994
10.8062
12.0689
12.7932
13.8962
13.159
5.62158
4.90567
12.0513
9.56762
10.1176
11.2273
0.302653
0.725023
1.10294
1.2925
2.01622
2.38519
2.73258
3.54296
4.20811
11.5317
12.3741
13.2005
13.694
13.4186
13.0654
12.7151
12.399
6.36575
7.06689
7.8354
12.9852
12.7702
12.5165
8.40041
9.05111
9.68994
10.8062
12.0689
12.7932
13.8962
13.159
5.62158
4.90567
12.0513
9.56762
10.1176
11.2273
0.337036
0.643315
0.566886
1.08742
1.26623
1.94218
2.18936
2.8998
3.60396
4.2414
11.592
12.295
13.0654
13.7722
14.3079
14.1281
13.8626
13.5615
13.2647
6.30348
6.94567
7.71601
13.8343
13.5495
13.2288
8.3055
8.74126
9.75007
11.1645
11.9336
11.1158
11.7665
14.1974
13.1493
13.5865
14.5003
5.58791
4.93216
12.7513
13.3573
10.5056
0.337036
0.643315
0.566886
1.08742
1.26623
1.94218
2.18936
2.8998
3.60396
4.2414
11.592
12.295
13.0654
13.7722
14.3079
14.1281
13.8626
13.5615
13.2647
6.30348
6.94567
7.71601
13.8343
13.5495
13.2288
8.3055
8.74126
9.75007
11.1645
11.1158
11.7665
11.9336
14.1974
13.1493
13.5865
14.5003
5.58791
4.93216
12.7513
13.3573
10.5056
0.21343
0.285535
0.816107
0.816404
1.17464
1.77398
2.28159
2.97312
3.64279
4.31182
10.9318
12.1639
12.991
13.7263
14.392
14.9282
14.7838
14.6018
14.3748
14.1121
6.24544
6.88815
7.51094
14.6732
14.3788
14.0008
7.91973
8.72032
9.54765
10.7887
12.6029
13.5193
11.3665
12.312
14.7526
13.8522
14.623
15.2787
5.59579
4.97859
14.2567
0.21343
0.285535
0.816107
0.816404
1.17464
1.77398
2.28159
2.97312
3.64279
4.31182
10.9318
12.1639
12.991
13.7263
14.392
14.9282
14.7838
14.6018
14.3748
14.1121
6.24544
6.88815
7.51094
14.6732
14.3788
14.0008
7.91973
8.72032
9.54765
10.7887
11.3665
12.312
12.6029
13.5193
14.7526
13.8522
14.623
15.2787
5.59579
4.97859
14.2567
0.445316
0.58708
0.591233
0.992365
1.62642
2.23072
3.02126
3.80162
4.3427
14.9327
11.4638
12.9154
13.5917
14.4651
15.0629
15.5841
15.4351
15.2882
15.126
14.9259
6.26026
6.94322
7.50943
15.4984
15.2389
14.9335
8.45814
9.46631
9.65557
10.4685
14.1972
13.5674
14.6354
11.4527
12.6184
15.8197
15.1424
15.5455
16.166
5.62164
4.94989
0.445316
0.58708
0.591233
0.992365
1.62642
2.23072
3.02126
3.80162
4.3427
14.9327
11.4638
12.9154
13.5917
14.4651
15.0629
15.5841
15.4351
15.2882
15.126
14.9259
6.26026
6.94322
7.50943
15.4984
15.2389
14.9335
8.45814
9.46631
9.65557
10.4685
11.4527
12.6184
13.5674
14.1972
14.6354
15.8197
15.1424
15.5455
16.166
5.62164
4.94989
0.333467
0.699104
1.44003
1.92415
2.84264
3.40805
4.24865
15.3399
12.0544
13.6728
14.4578
15.2492
15.7418
16.2643
16.0942
15.9537
15.8275
15.685
6.28668
6.98093
7.70546
16.2668
16.0788
15.8193
8.5183
9.29515
9.7542
10.4933
15.6013
15.1044
14.0361
15.7375
11.2792
12.6263
16.6675
16.9178
16.4046
17.0414
5.57051
4.85266
0.333467
0.699104
1.44003
1.92415
2.84264
3.40805
4.24865
15.3399
12.0544
13.6728
14.4578
15.2492
15.7418
16.2643
16.0942
15.9537
15.8275
15.685
6.28668
6.98093
7.70546
16.2668
16.0788
15.8193
8.5183
9.29515
9.7542
10.4933
11.2792
12.6263
14.0361
15.1044
15.6013
15.7375
16.9178
16.6675
16.4046
17.0414
5.57051
4.85266
-0.00623297
0.431147
1.61203
2.06625
2.42564
2.75164
3.43359
4.11739
15.9093
12.2232
12.6496
14.5352
15.6455
15.91
16.4358
16.9549
16.7698
16.6063
16.4915
16.3907
6.21357
6.88013
7.69496
16.9825
16.8571
16.655
8.35836
9.13742
9.56962
10.2979
17.0684
17.1294
15.7203
14.0851
17.6
10.7886
11.9264
17.9477
17.8022
17.2401
17.8801
5.48648
4.77164
-0.00623297
0.431147
1.61203
2.06625
2.42564
2.75164
3.43359
4.11739
15.9093
12.2232
12.6496
14.5352
15.6455
15.91
16.4358
16.9549
16.7698
16.6063
16.4915
16.3907
6.21357
6.88013
7.69496
16.9825
16.8571
16.655
8.35836
9.13742
9.56962
10.2979
10.7886
11.9264
14.0851
15.7203
17.1294
17.0684
17.6
17.8022
17.9477
17.2401
17.8801
5.48648
4.77164
-0.433329
-0.0519645
1.03026
1.64801
2.62666
2.86635
3.45114
4.06624
16.1122
15.9975
13.0484
15.1519
16.292
16.5812
17.1416
17.6381
17.4639
17.2846
17.1511
17.0619
6.14229
6.78966
7.53959
17.6543
17.5866
17.4477
8.1524
8.89915
9.36846
9.99626
17.9662
19.7469
19.0354
15.7006
18.0157
14.7676
13.5697
11.8601
18.8015
10.3363
11.0907
18.5531
18.7453
18.0173
18.6234
5.41158
4.67082
-0.433329
-0.0519645
1.03026
1.64801
2.62666
2.86635
3.45114
4.06624
16.1122
15.9975
13.0484
15.1519
16.292
16.5812
17.1416
17.6381
17.4639
17.2846
17.1511
17.0619
6.14229
6.78966
7.53959
17.6543
17.5866
17.4477
8.1524
8.89915
9.36846
9.99626
10.3363
11.0907
11.8601
13.5697
15.7006
14.7676
18.0157
19.0354
19.7469
17.9662
18.8015
18.7453
18.5531
18.0173
18.6234
5.41158
4.67082
0.00114401
0.394749
1.08001
0.596747
1.67686
2.22855
2.88444
3.41516
4.00599
16.2236
13.4465
15.3442
15.9863
17.1212
17.3931
17.8286
18.268
18.1249
17.9633
17.8077
17.7091
6.04468
6.64604
7.41291
18.2977
18.2586
18.1709
7.98857
8.69344
9.17662
9.85358
18.5778
20.7547
21.2778
20.3884
17.7752
16.9075
19.6449
14.318
12.3401
19.0655
10.4892
10.2987
20.0907
19.4925
18.7315
19.2026
5.2627
4.552
0.00114401
0.394749
1.08001
0.596747
1.67686
2.22855
2.88444
3.41516
4.00599
16.2236
13.4465
15.3442
15.9863
17.1212
17.3931
17.8286
18.268
18.1249
17.9633
17.8077
17.7091
6.04468
6.64604
7.41291
18.2977
18.2586
18.1709
7.98857
8.69344
9.17662
9.85358
10.2987
10.4892
12.3401
14.318
17.7752
16.9075
19.6449
20.3884
21.2778
20.7547
18.5778
19.0655
19.4925
20.0907
18.7315
19.2026
5.2627
4.552
0.155935
0.397573
0.554096
1.08896
1.91787
1.59698
2.35386
2.85042
3.35288
3.92892
16.3548
13.7852
14.9292
15.1192
16.5263
17.4668
17.9495
18.3748
18.8286
18.7661
18.6612
18.5007
18.3677
5.84373
6.41903
7.22826
18.9455
18.8942
18.8646
7.78976
8.50968
8.99992
9.58917
22.4082
22.5742
22.397
21.7156
19.2007
17.6695
15.6553
21.0289
13.9537
11.6959
21.4083
10.2766
9.7826
21.6886
20.077
19.4701
19.9937
5.0861
4.43189
0.155935
0.397573
0.554096
1.08896
1.91787
1.59698
2.35386
2.85042
3.35288
3.92892
16.3548
13.7852
14.9292
15.1192
16.5263
17.4668
17.9495
18.3748
18.8286
18.7661
18.6612
18.5007
18.3677
5.84373
6.41903
7.22826
18.9455
18.8942
18.8646
7.78976
8.50968
8.99992
9.58917
9.7826
10.2766
11.6959
13.9537
15.6553
19.2007
17.6695
21.0289
21.7156
22.397
22.5742
22.4082
21.4083
21.6886
20.077
19.4701
19.9937
5.0861
4.43189
0.799271
1.34981
1.49116
1.74681
2.29552
2.76857
3.23883
3.83866
16.4701
17.8331
15.9003
19.1001
15.2406
16.9546
17.8796
18.4114
18.8536
19.3185
19.3892
19.3731
19.2381
19.0656
5.62905
6.19483
6.99723
19.6128
19.505
19.4892
7.58303
8.34439
8.92654
9.41798
23.5007
23.3756
23.7496
23.4943
22.9111
20.4247
18.7048
16.9208
15.2524
22.2377
13.6803
12.1966
10.8994
10.4233
24.0341
20.4708
20.0831
20.3544
4.91742
4.28454
0.799271
1.34981
1.49116
1.74681
2.29552
2.76857
3.23883
3.83866
16.4701
17.8331
15.9003
19.1001
15.2406
16.9546
17.8796
18.4114
18.8536
19.3185
19.3892
19.3731
19.2381
19.0656
5.62905
6.19483
6.99723
19.6128
19.505
19.4892
7.58303
8.34439
8.92654
9.41798
10.4233
10.8994
12.1966
13.6803
15.2524
16.9208
20.4247
18.7048
22.2377
22.9111
23.4943
23.7496
23.5007
23.3756
24.0341
20.4708
20.0831
20.3544
4.91742
4.28454
0.887403
1.23779
1.69499
2.1788
2.63016
2.99866
3.6401
19.9431
15.6495
17.5653
18.1712
18.8295
19.2392
19.7421
19.9791
20.1216
20.0089
19.8021
5.42975
5.98432
6.76697
20.3135
20.1282
20.0463
7.36707
8.18969
8.89113
9.65217
25.0207
24.9526
25.3119
24.9701
24.6292
24.0493
21.4973
19.7065
17.9826
16.3899
14.9422
23.3291
13.1596
11.2068
11.5343
23.6138
21.2147
26.2837
20.4815
20.6775
4.74254
4.07482
0.887403
1.23779
1.69499
2.1788
2.63016
2.99866
3.6401
19.9431
15.6495
17.5653
18.1712
18.8295
19.2392
19.7421
19.9791
20.1216
20.0089
19.8021
5.42975
5.98432
6.76697
20.3135
20.1282
20.0463
7.36707
8.18969
8.89113
9.65217
11.2068
11.5343
13.1596
14.9422
16.3899
17.9826
21.4973
19.7065
23.3291
24.0493
24.6292
24.9701
25.0207
24.9526
25.3119
23.6138
26.2837
21.2147
20.4815
20.6775
4.74254
4.07482
0.554993
0.987135
1.53336
1.9883
2.38208
2.6929
3.35712
20.4101
16.1898
17.991
18.8389
19.0542
19.6104
20.0632
20.4929
20.9396
20.8162
20.5706
5.24019
5.7989
6.55637
21.0483
20.7807
20.5976
7.16008
8.03328
8.92112
9.88257
26.4194
26.5025
26.7525
27.1824
26.2118
25.7818
25.1587
22.4754
20.6213
18.8691
17.2731
15.8395
14.5751
24.3743
13.797
12.1088
10.3237
21.7083
24.0048
27.1405
21.0075
4.54317
3.8275
0.554993
0.987135
1.53336
1.9883
2.38208
2.6929
3.35712
20.4101
16.1898
17.991
18.8389
19.0542
19.6104
20.0632
20.4929
20.9396
20.8162
20.5706
5.24019
5.7989
6.55637
21.0483
20.7807
20.5976
7.16008
8.03328
8.92112
9.88257
10.3237
12.1088
14.5751
13.797
15.8395
17.2731
18.8691
22.4754
20.6213
24.3743
25.1587
25.7818
26.2118
26.4194
26.5025
26.7525
27.1824
21.7083
24.0048
27.1405
21.0075
4.54317
3.8275
0.254846
0.626202
1.33998
1.71566
2.08576
2.35276
3.07935
21.165
16.3144
16.8267
18.2177
19.6339
19.4873
20.1118
20.598
20.7536
21.9012
21.5967
21.339
5.05792
5.61556
6.35612
21.7512
21.4832
21.2409
7.01228
7.91418
8.82354
9.91107
27.7966
27.9881
28.1772
28.3821
28.3843
27.4654
26.9588
26.2785
23.3577
21.4032
19.592
17.9437
16.4053
14.975
13.5951
25.3857
13.3077
12.5165
12.6921
10.7346
21.7713
22.6066
24.1296
28.52
4.31466
3.56027
0.254846
0.626202
1.33998
1.71566
2.08576
2.35276
3.07935
21.165
16.3144
16.8267
18.2177
19.6339
19.4873
20.1118
20.598
20.7536
21.9012
21.5967
21.339
5.05792
5.61556
6.35612
21.7512
21.4832
21.2409
7.01228
7.91418
8.82354
9.91107
10.7346
12.5165
14.975
13.5951
13.3077
12.6921
16.4053
17.9437
19.592
23.3577
21.4032
25.3857
26.2785
26.9588
27.4654
27.7966
27.9881
28.1772
28.3821
28.3843
21.7713
22.6066
24.1296
28.52
4.31466
3.56027
-0.134439
0.253898
1.23806
1.62594
1.70065
2.05882
2.76743
21.653
22.1427
17.2228
18.1855
18.5873
20.0582
20.1839
20.6871
20.9851
21.1096
22.7051
22.0929
21.9905
4.87451
5.4754
6.20728
22.395
22.1625
21.9901
6.95659
7.88296
8.92258
9.65441
29.1526
29.4166
29.5717
29.6161
29.479
29.2393
28.7455
28.1898
27.4387
24.2196
22.1162
20.202
18.462
16.8363
15.2907
13.7961
12.3895
26.4297
10.5847
11.4515
10.75
11.3498
22.741
23.6133
24.4701
28.6714
25.4899
4.1048
3.32265
-0.134439
0.253898
1.23806
1.62594
1.70065
2.05882
2.76743
21.653
22.1427
17.2228
18.1855
18.5873
20.0582
20.1839
20.6871
20.9851
21.1096
22.7051
22.0929
21.9905
4.87451
5.4754
6.20728
22.395
22.1625
21.9901
6.95659
7.88296
8.92258
9.65441
10.75
15.2907
13.7961
12.3895
10.5847
11.4515
11.3498
16.8363
18.462
20.202
24.2196
22.1162
26.4297
27.4387
28.1898
28.7455
29.1526
29.4166
29.5717
29.6161
29.479
29.2393
22.741
23.6133
24.4701
28.6714
25.4899
4.1048
3.32265
-0.673813
-0.379241
0.714412
0.870713
1.43418
1.8874
2.53658
23.1096
17.4181
17.7014
18.9212
20.0959
20.664
21.1608
21.4551
21.7958
23.3256
22.6254
22.5819
4.73637
5.402
6.12992
23.024
22.8084
22.7382
6.96767
7.8898
8.8522
30.5379
30.8289
30.976
30.9253
30.6776
30.258
29.8943
30.103
29.507
28.6794
25.1014
22.8373
20.7916
18.9394
17.2359
15.6785
14.2478
12.9361
11.7484
27.5276
9.92636
9.11156
10.0516
10.6756
10.535
23.6214
24.1709
26.6446
29.202
24.8955
3.96658
3.24179
-0.673813
-0.379241
0.714412
0.870713
1.43418
1.8874
2.53658
23.1096
17.4181
17.7014
18.9212
20.0959
20.664
21.1608
21.4551
21.7958
23.3256
22.6254
22.5819
4.73637
5.402
6.12992
23.024
22.8084
22.7382
6.96767
7.8898
8.8522
15.6785
14.2478
12.9361
11.7484
9.92636
9.11156
10.0516
10.6756
10.535
17.2359
18.9394
20.7916
25.1014
22.8373
27.5276
28.6794
29.507
30.103
30.5379
30.8289
30.976
30.9253
30.6776
30.258
29.8943
23.6214
24.1709
26.6446
29.202
24.8955
3.96658
3.24179
-0.0145598
0.309778
1.20142
0.395847
0.982257
1.40978
1.75727
2.39077
24.0614
24.9083
18.128
19.2238
20.3587
21.1098
21.6331
22.1537
22.4576
23.4061
23.3551
23.156
4.67718
5.42068
6.05833
23.6187
23.4276
23.4102
6.38379
8.12809
32.0235
32.3086
32.4208
32.2978
31.9763
31.4719
30.9288
30.4907
31.5829
30.9496
30.0373
26.0128
23.5257
21.3189
19.3585
17.6055
16.0526
14.7045
13.6572
13.1234
11.7002
28.7258
8.39593
9.43768
7.42129
9.63276
9.59989
24.3452
26.9349
25.5938
27.7616
29.7699
3.89921
3.25116
-0.0145598
0.309778
1.20142
0.395847
0.982257
1.40978
1.75727
2.39077
24.0614
24.9083
18.128
19.2238
20.3587
21.1098
21.6331
22.1537
22.4576
23.4061
23.3551
23.156
4.67718
5.42068
6.05833
23.6187
23.4276
23.4102
6.38379
8.12809
16.0526
14.7045
13.6572
13.1234
11.7002
8.39593
9.43768
7.42129
9.63276
9.59989
17.6055
19.3585
21.3189
26.0128
23.5257
28.7258
30.0373
30.9496
31.5829
32.0235
32.3086
32.4208
32.2978
31.9763
31.4719
30.9288
30.4907
24.3452
26.9349
25.5938
27.7616
29.7699
3.89921
3.25116
0.349824
1.08495
0.658693
0.563185
1.0103
1.46596
2.10538
1.95125
25.7261
18.5461
19.5827
20.7305
21.5898
22.1706
22.7312
22.9554
23.714
23.8233
23.7621
4.64908
5.29101
6.23626
24.3006
23.9715
24.0595
6.72767
33.6666
33.9149
33.9611
33.7716
33.3462
32.7962
32.1432
31.5994
31.1928
33.219
32.5691
31.5835
26.9641
24.2089
21.8232
19.7589
17.959
16.3672
14.98
13.8612
12.9801
11.8192
10.2782
9.89833
30.0581
7.89073
7.9296
8.5764
9.14775
9.42064
26.2127
24.5109
28.1377
25.1564
29.0557
30.6364
4.06482
2.91009
0.349824
1.08495
0.658693
0.563185
1.0103
1.46596
2.10538
1.95125
25.7261
18.5461
19.5827
20.7305
21.5898
22.1706
22.7312
22.9554
23.714
23.8233
23.7621
4.64908
5.29101
6.23626
24.3006
23.9715
24.0595
6.72767
16.3672
14.98
13.8612
12.9801
11.8192
10.2782
9.89833
7.89073
7.9296
8.5764
9.14775
9.42064
17.959
19.7589
21.8232
26.9641
24.2089
30.0581
31.5835
32.5691
33.219
33.6666
33.9149
33.9611
33.7716
33.3462
32.7962
32.1432
31.5994
31.1928
26.2127
24.5109
28.1377
25.1564
29.0557
30.6364
4.06482
2.91009
0.485838
0.401457
0.740215
1.05959
1.53099
1.65794
2.28329
26.4236
18.9436
19.9666
21.227
22.1288
22.6729
23.2355
23.4235
24.0928
24.2575
24.3157
4.53624
5.3429
5.8252
24.8795
24.756
35.4656
35.7367
35.6936
35.356
34.8469
34.2077
33.4378
32.7295
32.2859
32.1021
35.0152
34.4366
33.4042
27.9783
24.8694
22.2643
20.1053
18.2528
16.6125
15.1594
13.9242
12.8576
11.7506
10.4377
9.54631
10.2898
9.52279
9.43094
31.6091
6.79249
6.67653
7.74065
8.34949
8.84084
25.7846
27.0578
25.119
28.5094
30.0247
31.4398
3.47663
3.03759
2.8622
0.485838
0.401457
0.740215
1.05959
1.53099
1.65794
2.28329
26.4236
18.9436
19.9666
21.227
22.1288
22.6729
23.2355
23.4235
24.0928
24.2575
24.3157
4.53624
5.3429
5.8252
24.8795
24.756
16.6125
15.1594
13.9242
12.8576
11.7506
10.4377
9.54631
10.2898
9.52279
9.43094
6.79249
6.67653
7.74065
8.34949
8.84084
18.2528
20.1053
22.2643
27.9783
24.8694
33.4042
31.6091
34.4366
35.0152
35.4656
35.7367
35.6936
35.356
34.8469
34.2077
33.4378
32.7295
32.2859
32.1021
25.7846
27.0578
25.119
28.5094
30.0247
31.4398
3.47663
3.03759
2.8622
-0.0935406
0.136922
0.992732
1.44247
1.5677
2.30753
26.9717
19.3107
20.4058
21.8736
22.6275
23.1231
23.7457
23.8776
24.5433
24.7005
24.8327
4.4756
5.57819
25.3843
37.3119
37.7417
37.6732
37.0169
36.428
35.676
34.8038
33.9221
33.3106
33.0667
33.3432
37.0735
36.7191
35.6732
28.996
25.401
22.5237
20.2625
18.4183
16.7776
15.2767
13.9465
12.7763
11.7189
10.68
9.91265
8.93139
8.86276
8.29753
8.22943
8.15433
33.3889
5.59701
6.64183
7.30994
7.80116
25.9339
26.6232
27.6356
28.9548
31.1913
31.6011
3.6844
2.84472
3.09249
-0.0935406
0.136922
0.992732
1.44247
1.5677
2.30753
26.9717
19.3107
20.4058
21.8736
22.6275
23.1231
23.7457
23.8776
24.5433
24.7005
24.8327
4.4756
5.57819
25.3843
16.7776
15.2767
13.9465
12.7763
11.7189
10.68
9.91265
8.93139
8.86276
8.29753
8.22943
8.15433
5.59701
6.64183
7.30994
7.80116
18.4183
20.2625
22.5237
28.996
25.401
35.6732
36.7191
33.3889
37.0735
37.3119
37.7417
37.6732
37.0169
36.428
35.676
34.8038
33.9221
33.3106
33.0667
33.3432
25.9339
26.6232
27.6356
28.9548
31.1913
31.6011
3.6844
2.84472
3.09249
-0.713637
-0.53766
0.716386
0.999419
1.74194
2.35155
27.3115
19.6397
20.8522
22.6725
22.8852
23.6173
24.2426
24.3981
25.0645
25.2084
25.3384
4.55466
39.3357
39.2255
40.2577
38.8977
38.0776
37.1344
36.1632
35.2206
34.4354
33.8158
33.553
34.4415
39.6889
39.7196
38.5984
29.7716
25.6102
22.4416
20.0698
18.3531
16.7877
15.3042
13.9308
12.7042
11.6916
10.7707
9.84948
9.57996
7.54067
7.86003
7.7533
6.86255
7.44306
7.14969
35.1285
4.52881
5.67068
6.15412
6.72351
25.8671
26.5317
27.2796
28.0525
29.1508
32.5569
32.4577
3.59676
2.76896
3.02853
-0.713637
-0.53766
0.716386
0.999419
1.74194
2.35155
27.3115
19.6397
20.8522
22.6725
22.8852
23.6173
24.2426
24.3981
25.0645
25.2084
25.3384
4.55466
16.7877
15.3042
13.9308
12.7042
11.6916
10.7707
9.84948
9.57996
7.54067
7.86003
7.7533
6.86255
7.44306
7.14969
4.52881
5.67068
6.15412
6.72351
18.3531
20.0698
22.4416
29.7716
25.6102
38.5984
39.7196
39.6889
35.1285
39.3357
39.2255
40.2577
38.8977
38.0776
37.1344
36.1632
35.2206
34.4354
33.8158
33.553
34.4415
25.8671
26.5317
27.2796
28.0525
29.1508
32.5569
32.4577
3.59676
2.76896
3.02853
-0.0958805
0.274006
1.47102
0.612424
1.30087
1.75647
2.20881
27.4775
19.9039
21.1743
23.3082
23.3561
24.0476
24.6976
24.8913
25.5846
25.7398
42.0291
40.743
40.4078
41.883
39.9006
38.5515
37.4693
36.4994
35.665
35.0178
34.286
33.4778
34.2182
35.7129
43.2601
43.9915
42.6096
29.1255
25.4318
21.6627
19.1637
17.8569
16.5194
15.1773
13.8662
12.608
11.5551
10.7351
9.82918
8.40324
7.68019
6.25378
7.24631
7.51224
6.42547
6.71012
6.40978
5.63832
6.07307
35.2058
3.10665
4.19294
4.77601
5.55214
26.4037
27.1119
27.9456
28.7687
29.7057
33.662
30.6922
2.6797
3.26121
-0.0958805
0.274006
1.47102
0.612424
1.30087
1.75647
2.20881
27.4775
19.9039
21.1743
23.3082
23.3561
24.0476
24.6976
24.8913
25.5846
25.7398
16.5194
15.1773
13.8662
12.608
11.5551
10.7351
9.82918
8.40324
7.68019
6.25378
7.24631
7.51224
6.42547
6.71012
6.40978
5.63832
6.07307
3.10665
4.19294
4.77601
5.55214
17.8569
19.1637
21.6627
29.1255
25.4318
42.6096
43.9915
43.2601
42.0291
35.2058
40.743
40.4078
41.883
39.9006
38.5515
37.4693
36.4994
35.665
35.0178
34.286
33.4778
34.2182
35.7129
26.4037
27.1119
27.9456
28.7687
29.7057
33.662
30.6922
2.6797
3.26121
0.486844
1.30165
0.952216
0.802384
1.24999
1.63527
2.0467
27.5813
20.3061
21.3208
21.9173
23.8329
23.9946
24.5642
25.2215
25.4158
26.1284
26.2633
45.5245
43.6432
41.7661
40.9544
40.8434
41.8017
40.0353
38.7227
37.5989
36.7046
36.1987
35.8946
35.1746
34.6595
33.9582
33.8922
33.7664
47.9274
50.9274
48.7993
24.7156
22.4727
21.6669
17.61
17.1893
15.843
14.7346
13.6929
12.4739
11.2756
10.4226
9.88389
9.65127
8.54019
5.6544
4.59229
6.20228
6.62401
6.90165
6.13625
5.62877
5.43406
4.87073
5.11706
29.523
3.39644
4.18335
3.97784
4.64533
26.9026
27.6294
28.4849
29.1573
31.7005
29.7613
2.43663
2.56613
0.486844
1.30165
0.952216
0.802384
1.24999
1.63527
2.0467
27.5813
20.3061
21.3208
21.9173
23.8329
23.9946
24.5642
25.2215
25.4158
26.1284
26.2633
15.843
14.7346
13.6929
12.4739
11.2756
10.4226
9.88389
9.65127
8.54019
5.6544
4.59229
6.20228
6.62401
6.90165
6.13625
5.62877
5.43406
4.87073
5.11706
3.39644
4.18335
3.97784
4.64533
17.1893
17.61
21.6669
24.7156
22.4727
48.7993
50.9274
47.9274
45.5245
43.6432
29.523
41.7661
40.9544
40.8434
41.8017
40.0353
38.7227
37.5989
36.7046
36.1987
35.8946
35.1746
34.6595
33.9582
33.8922
33.7664
26.9026
27.6294
28.4849
29.1573
31.7005
29.7613
2.43663
2.56613
0.729231
0.67247
0.828937
1.16554
1.49126
1.88136
27.5492
20.5347
20.6448
22.8648
23.6758
24.389
24.9947
25.6855
25.9414
26.6169
26.7501
48.7615
46.916
44.6593
42.6905
42.3832
41.5079
41.0357
39.7715
38.4972
37.498
36.9682
36.7535
37.0807
35.4439
32.5251
34.6525
35.3382
35.7671
35.1843
36.1359
54.9233
58.9955
55.8662
16.3495
16.712
16.3477
16.4234
12.9797
14.6166
14.255
13.6679
13.0089
12.3693
10.8052
9.74658
9.30926
8.63621
8.25264
6.22627
4.77536
5.70499
5.4568
4.75996
5.65208
5.13786
6.22564
6.34248
6.18144
5.94994
4.70129
4.34672
4.37405
12.3392
3.01907
3.67143
3.96252
27.3816
28.1091
28.9124
30.8088
29.4201
2.22148
0.729231
0.67247
0.828937
1.16554
1.49126
1.88136
27.5492
20.5347
20.6448
22.8648
23.6758
24.389
24.9947
25.6855
25.9414
26.6169
26.7501
14.255
13.6679
13.0089
12.3693
10.8052
9.74658
9.30926
8.63621
8.25264
6.22627
4.77536
5.70499
5.4568
4.75996
5.65208
5.13786
6.22564
6.34248
6.18144
5.94994
4.70129
4.34672
4.37405
3.01907
3.67143
3.96252
14.6166
12.9797
16.4234
16.3477
16.3495
16.712
55.8662
58.9955
54.9233
48.7615
46.916
44.6593
12.3392
42.6905
42.3832
41.5079
41.0357
39.7715
38.4972
37.498
36.9682
36.7535
37.0807
35.4439
32.5251
34.6525
35.3382
35.7671
35.1843
36.1359
27.3816
28.1091
28.9124
30.8088
29.4201
2.22148
0.307852
0.426089
0.759093
1.01109
1.27237
1.70454
27.5047
27.0558
21.0979
23.3677
23.8919
24.6609
25.3462
26.1125
26.4192
27.1009
27.2369
52.9187
48.3101
47.5822
44.2236
43.868
42.5492
41.529
40.4744
39.2279
38.1241
37.4955
37.1582
36.9561
37.5692
31.7868
33.1725
33.9394
35.188
35.83
35.3307
35.9175
38.0875
56.5962
86.935
12.1822
9.1193
13.5724
14.2573
10.4054
11.1819
11.987
11.9833
11.6287
11.2904
11.4954
9.11761
9.03909
8.02631
6.86691
6.96777
5.8319
3.8482
4.31814
4.75257
5.56653
3.83891
5.35555
4.03965
5.78102
5.78703
5.87808
5.71966
5.10149
4.01389
3.59314
3.6832
2.12805
2.83369
3.32139
27.8704
28.5854
30.0094
29.0454
0.307852
0.426089
0.759093
1.01109
1.27237
1.70454
27.5047
27.0558
21.0979
23.3677
23.8919
24.6609
25.3462
26.1125
26.4192
27.1009
27.2369
11.987
11.9833
11.6287
11.2904
11.4954
9.11761
9.03909
8.02631
6.86691
6.96777
5.8319
3.8482
4.31814
4.75257
5.56653
3.83891
5.35555
4.03965
5.78102
5.78703
5.87808
5.71966
5.10149
4.01389
3.59314
3.6832
2.12805
2.83369
3.32139
11.1819
14.2573
10.4054
13.5724
12.1822
9.1193
86.935
56.5962
52.9187
48.3101
47.5822
44.2236
43.868
42.5492
41.529
40.4744
39.2279
38.1241
37.4955
37.1582
36.9561
37.5692
31.7868
33.1725
33.9394
35.188
35.83
35.3307
35.9175
38.0875
27.8704
28.5854
30.0094
29.0454
-0.0399086
0.169298
0.676126
0.736528
0.950134
1.61575
27.2412
20.8933
21.3373
24.0226
24.1533
24.9495
25.6161
26.5621
26.9071
27.5644
27.7204
48.6638
52.463
48.3002
46.6973
46.7827
45.0199
43.5228
42.3253
41.1305
39.9057
38.6882
37.8094
37.5425
37.4695
36.8007
37.4404
30.3629
33.5818
32.2759
33.9174
35.1812
35.99
36.3415
36.6526
37.7186
37.609
37.6845
77.7727
1.68095
-3.48071
5.93953
10.0659
7.0646
8.17189
9.27847
9.94963
10.0013
9.60736
8.82351
9.02051
7.18517
7.74081
7.56069
7.0912
7.06285
5.06962
4.55847
3.57656
3.65478
3.84953
3.65645
4.09819
3.22698
4.6354
4.17277
4.60098
4.91856
4.95564
4.7793
4.15961
3.30153
2.95595
2.89384
2.08089
2.34105
28.357
29.5342
28.7967
-0.0399086
0.169298
0.676126
0.736528
0.950134
1.61575
27.2412
20.8933
21.3373
24.0226
24.1533
24.9495
25.6161
26.5621
26.9071
27.5644
27.7204
9.27847
9.94963
10.0013
9.60736
8.82351
9.02051
7.18517
7.74081
7.56069
7.0912
7.06285
5.06962
4.55847
3.57656
3.65478
3.84953
3.65645
4.09819
3.22698
4.6354
4.17277
4.60098
4.91856
4.95564
4.7793
4.15961
3.30153
2.95595
2.89384
2.08089
2.34105
8.17189
10.0659
7.0646
5.93953
1.68095
-3.48071
77.7727
52.463
48.6638
48.3002
46.6973
46.7827
45.0199
43.5228
42.3253
41.1305
39.9057
38.6882
37.8094
37.5425
37.4695
36.8007
37.4404
30.3629
33.5818
32.2759
33.9174
35.1812
35.99
36.3415
36.6526
37.7186
37.609
37.6845
28.357
29.5342
28.7967
-0.460011
-0.195918
0.655579
0.687981
0.275173
0.883544
27.0526
26.4227
21.4998
23.7756
24.6955
24.8782
25.8277
27.0606
27.3601
27.9314
28.159
70.7612
64.9169
45.1526
45.3222
44.8145
43.2301
42.3079
43.4017
42.7912
41.822
40.6091
39.3259
38.1711
37.4289
37.8099
37.9943
37.8667
30.2643
31.6702
33.0947
32.5554
33.3446
34.7924
36.126
36.8719
36.7838
37.0065
36.5548
37.5535
37.8954
-0.0862142
4.44585
4.15782
5.21983
6.70881
7.63471
8.27383
8.37219
8.24273
8.5371
7.03243
6.71868
6.79934
6.5702
5.92094
5.3679
5.18617
2.95865