/*--------------------------------*- C++ -*----------------------------------*\
| =========                 |                                                 |
| \\      /  F ield         | OpenFOAM: The Open Source CFD Toolbox           |
|  \\    /   O peration     | Version:  2.4.x                                 |
|   \\  /    A nd           | Web:      www.OpenFOAM.org                      |
|    \\/     M anipulation  |                                                 |
\*---------------------------------------------------------------------------*/
FoamFile
{
    version     2.0;
    format      ascii;
    class       volScalarField;
    location    "10";
    object      gradTz;
}
// * * * * * * * * * * * * * * * * * * * * * * * * * * * * * * * * * * * * * //

dimensions      [0 -1 0 1 0 0 0];

internalField   nonuniform List<scalar> 
6768
(
3999.99
-3999.99
3999.93
3999.93
-3999.93
-3999.93
3999.93
3999.64
3999.82
-3999.93
-3999.64
-3999.82
3999.53
3999.13
3999.18
3999.7
-3999.53
-3999.13
-3999.18
-3999.7
3999.53
3998.56
3997.78
3998.79
3999.65
-3999.53
-3998.56
-3997.78
-3998.79
-3999.65
3999.37
3998.4
3996.42
3997.36
3995.54
3998.75
3999.54
-3999.37
-3998.4
-3996.42
-3997.36
-3995.54
-3998.75
-3999.54
3999.04
3997.49
3994.58
3993.3
3998.06
3995.84
3992.97
3999.28
-3999.04
-3997.49
-3994.58
-3993.3
-3998.06
-3995.84
-3992.97
-3999.28
3998.74
3996.62
3993.03
3990.91
3989.5
3997.32
3994.36
3989.92
3999.05
-3998.74
-3996.62
-3993.03
-3990.91
-3989.5
-3997.32
-3994.36
-3989.92
-3999.05
3998.48
3995.82
3991.57
3988.86
3986.42
3983.84
3996.65
3993.63
3991.38
3985.8
3998.8
-3998.48
-3995.82
-3991.57
-3988.86
-3986.42
-3983.84
-3996.65
-3993.63
-3991.38
-3985.8
-3998.8
3998.26
3995.07
3990.07
3986.67
3984.7
3980.78
3978.87
3976
3995.8
3994.69
3989.16
3982.46
3998.44
-3998.26
-3995.07
-3990.07
-3986.67
-3984.7
-3980.78
-3978.87
-3976
-3995.8
-3994.69
-3989.16
-3982.46
-3998.44
3998.15
3994.4
3988.63
3984.13
3981.06
3974.07
3974.51
3970.67
3968.08
3998.06
3993.68
3987.25
3979.62
-3998.15
-3994.4
-3988.63
-3984.13
-3981.06
-3974.07
-3974.51
-3970.67
-3968.08
-3998.06
-3993.68
-3987.25
-3979.62
3998.26
3994.05
3987.74
3981.62
3977.16
3969.32
3966.32
3970.61
3965.18
3961.55
3959.79
3997.75
3992.93
3985.78
3977.31
-3998.26
-3994.05
-3987.74
-3981.62
-3977.16
-3969.32
-3966.32
-3970.61
-3965.18
-3961.55
-3959.79
-3997.75
-3992.93
-3985.78
-3977.31
3998.23
3994.7
3992.89
3985
3978.92
3973.41
3964.26
3960.73
3967.35
3959.8
3954.49
3951.63
3951.52
3997.68
3992.67
3985.23
3975.18
-3998.23
-3994.7
-3992.89
-3985
-3978.92
-3973.41
-3964.26
-3960.73
-3967.35
-3959.8
-3954.49
-3951.63
-3951.52
-3997.68
-3992.67
-3985.23
-3975.18
3997.43
3991.79
3983.3
3975.94
3969.48
3959.03
3954.13
3966.12
3954.83
3947.15
3942.52
3941.07
3942.88
3997.85
3993.59
3991.55
3982.37
3972.19
-3997.43
-3991.79
-3983.3
-3975.94
-3969.48
-3959.03
-3954.13
-3966.12
-3954.83
-3947.15
-3942.52
-3941.07
-3942.88
-3997.85
-3993.59
-3991.55
-3982.37
-3972.19
3997.33
3991.48
3982.82
3973.36
3965.55
3953.84
3947.38
3960.4
3946.54
3939.21
3932.85
3929.15
3929.88
3934.38
3997.72
3997.09
3990.34
3980.42
3968.71
-3997.33
-3991.48
-3982.82
-3973.36
-3965.55
-3953.84
-3947.38
-3960.4
-3946.54
-3939.21
-3932.85
-3929.15
-3929.88
-3934.38
-3997.72
-3997.09
-3990.34
-3980.42
-3968.71
3997.57
3992.7
3990.58
3980.13
3970.83
3961.75
3948.76
3940.76
3955
3939.71
3930.74
3923.04
3916.95
3912.87
3919.87
3926.27
3996.85
3990.02
3979.62
3965.09
-3997.57
-3992.7
-3990.58
-3980.13
-3970.83
-3961.75
-3948.76
-3940.76
-3955
-3939.71
-3930.74
-3923.04
-3916.95
-3912.87
-3919.87
-3926.27
-3996.85
-3990.02
-3979.62
-3965.09
3997.46
3997
3989.97
3979.71
3968.31
3958.09
3943.83
3934.24
3949.95
3933.43
3922.75
3913.43
3905.64
3899.14
3905.38
3890.1
3910.55
3918.18
3997.13
3991.54
3890.43
3975.76
3961.15
-3997.46
-3997
-3989.97
-3979.71
-3968.31
-3958.09
-3943.83
-3934.24
-3949.95
-3933.43
-3922.75
-3913.43
-3905.64
-3899.14
-3905.38
-3890.1
-3910.55
-3918.18
-3997.13
-3991.54
-3890.43
-3975.76
-3961.15
3997.13
3991.28
3988.64
3976.77
3966.09
3954.72
3939.26
3927.8
3945.23
3927.72
3915.21
3904.11
3894.66
3887.1
3881.64
3893.5
3874.48
3864.85
3900.57
3909.96
3997.32
3996.32
4561.92
3986.55
3972.86
3957.79
-3997.13
-3991.28
-3988.64
-3976.77
-3966.09
-3954.72
-3939.26
-3927.8
-3945.23
-3927.72
-3915.21
-3904.11
-3894.66
-3887.1
-3881.64
-3893.5
-3874.48
-3864.85
-3900.57
-3909.96
-3997.32
-3996.32
-4561.92
-3986.55
-3972.86
-3957.79
3996.92
3996.12
3987.2
3975.19
3964.24
3952.27
3936.02
3921.54
3941.22
3922.9
3908.24
3895.12
3883.75
3874.35
3867.34
3881.39
3860.88
3855.61
3845.69
3839.59
3890.37
3901.5
3995.3
3985.09
3970.88
3955.33
-3996.92
-3996.12
-3987.2
-3975.19
-3964.24
-3952.27
-3936.02
-3921.54
-3941.22
-3922.9
-3908.24
-3895.12
-3883.75
-3874.35
-3867.34
-3881.39
-3860.88
-3855.61
-3845.69
-3839.59
-3890.37
-3901.5
-3995.3
-3985.09
-3970.88
-3955.33
3995.64
3986.41
3974.13
3962.29
3952.71
3947.34
3928.64
3914.66
3938.3
3919.75
3902.12
3886.58
3873.12
3861.66
3852.41
3869.15
3846.11
3838.83
3828.81
3821.62
3813.09
3879.89
3892.62
3994.91
3984.47
3969.98
3954.04
-3995.64
-3986.41
-3974.13
-3962.29
-3952.71
-3947.34
-3928.64
-3914.66
-3938.3
-3919.75
-3902.12
-3886.58
-3873.12
-3861.66
-3852.41
-3869.15
-3846.11
-3838.83
-3828.81
-3821.62
-3813.09
-3879.89
-3892.62
-3994.91
-3984.47
-3969.98
-3954.04
3995.36
3986.11
3974.11
3960.37
3944.6
3924.63
3907.18
3936.76
3920.93
3897.89
3878.48
3862.78
3849.3
3837.89
3856.64
3831.55
3820.72
3812.36
3803.68
3798.94
3792.28
3780.44
3869.24
3883.52
3995.02
3984.92
3971.08
3952.8
-3995.36
-3986.11
-3974.11
-3960.37
-3944.6
-3924.63
-3907.18
-3936.76
-3920.93
-3897.89
-3878.48
-3862.78
-3849.3
-3837.89
-3856.64
-3831.55
-3820.72
-3812.36
-3803.68
-3798.94
-3792.28
-3780.44
-3869.24
-3883.52
-3995.02
-3984.92
-3971.08
-3952.8
3995.7
3986.33
3976.18
3960.89
3945.23
3938.01
3915.78
3899.43
3935.16
3913.85
3886.37
3869.29
3852.32
3837.12
3823.72
3844.34
3817.84
3804.36
3796.38
3784.68
3776.82
3775.02
3760.25
3744.08
3858.65
3874.24
3995.72
3987.57
3984.58
3968.28
3951.26
-3995.7
-3986.33
-3976.18
-3960.89
-3945.23
-3938.01
-3915.78
-3899.43
-3935.16
-3913.85
-3886.37
-3869.29
-3852.32
-3837.12
-3823.72
-3844.34
-3817.84
-3804.36
-3796.38
-3784.68
-3776.82
-3775.02
-3760.25
-3744.08
-3858.65
-3874.24
-3995.72
-3987.57
-3984.58
-3968.28
-3951.26
3995.59
3985.83
3972.44
3956.65
3954.11
3934.56
3908.53
3890.82
3935.08
3926.46
3902.34
3875.97
3858.49
3841.3
3824.92
3809.9
3832.53
3805.17
3789.76
3781.16
3767.06
3753.27
3760.13
3743.83
3726.88
3702.25
3713.1
3848.27
3864.99
3995.74
3995.26
3983.95
3968.16
3947.67
-3995.59
-3985.83
-3972.44
-3956.65
-3954.11
-3934.56
-3908.53
-3890.82
-3935.08
-3926.46
-3902.34
-3875.97
-3858.49
-3841.3
-3824.92
-3809.9
-3832.53
-3805.17
-3789.76
-3781.16
-3767.06
-3753.27
-3760.13
-3743.83
-3726.88
-3702.25
-3713.1
-3848.27
-3864.99
-3995.74
-3995.26
-3983.95
-3968.16
-3947.67
3995.27
3984.52
3970.21
3969.38
3955.95
3951.06
3926.3
3900.96
3882.64
3942.06
3919.12
3894
3866.97
3848.03
3829.9
3812.58
3796.29
3821.28
3793.28
3776.58
3766.43
3751.11
3735.8
3747.01
3729.09
3711.87
3696.83
3664.94
3667.98
3678.93
3707.37
3838.25
3856.1
3995.27
3986.11
3981.88
3962.89
-3995.27
-3984.52
-3970.21
-3969.38
-3955.95
-3951.06
-3926.3
-3900.96
-3882.64
-3942.06
-3919.12
-3894
-3866.97
-3848.03
-3829.9
-3812.58
-3796.29
-3821.28
-3793.28
-3776.58
-3766.43
-3751.11
-3735.8
-3747.01
-3729.09
-3711.87
-3696.83
-3664.94
-3667.98
-3678.93
-3707.37
-3838.25
-3856.1
-3995.27
-3986.11
-3981.88
-3962.89
3994.88
3983.73
3983.35
3969.01
3970.28
3964.5
3943.13
3919.53
3894.33
3874.81
3959.34
3937.36
3913.23
3886.99
3858.9
3838.25
3818.73
3800.23
3782.77
3810.53
3781.92
3764.54
3751.78
3735.44
3720.45
3735.69
3716.32
3695.85
3678.61
3632.03
3644.3
3629.47
3643.05
3629.25
3688.92
3655.56
3828.58
3847.59
3995.02
3993.69
3979.33
-3994.88
-3983.73
-3983.35
-3969.01
-3970.28
-3964.5
-3943.13
-3919.53
-3894.33
-3874.81
-3959.34
-3937.36
-3913.23
-3886.99
-3858.9
-3838.25
-3818.73
-3800.23
-3782.77
-3810.53
-3781.92
-3764.54
-3751.78
-3735.44
-3720.45
-3735.69
-3716.32
-3695.85
-3678.61
-3644.3
-3629.47
-3632.03
-3643.05
-3629.25
-3688.92
-3655.56
-3828.58
-3847.59
-3995.02
-3993.69
-3979.33
3994.69
3994.66
3983.23
3981.98
3979.75
3960.41
3938.52
3914.62
3888.9
3867.67
3977.73
3956.82
3933.84
3908.42
3880.86
3851.54
3829.16
3808.05
3788.13
3769.37
3800.07
3770.64
3752.64
3737.23
3719.53
3703.26
3723
3709.69
3680.85
3660.55
3599.88
3599.51
3623.05
3607.94
3619.06
3606.24
3669.59
3633.9
3819.27
3839.61
3992.81
-3994.69
-3994.66
-3983.23
-3981.98
-3979.75
-3960.41
-3938.52
-3914.62
-3888.9
-3867.67
-3977.73
-3956.82
-3933.84
-3908.42
-3880.86
-3851.54
-3829.16
-3808.05
-3788.13
-3769.37
-3800.07
-3770.64
-3752.64
-3737.23
-3719.53
-3703.26
-3723
-3709.69
-3680.85
-3660.55
-3623.05
-3607.94
-3599.88
-3599.51
-3619.06
-3606.24
-3669.59
-3633.9
-3819.27
-3839.61
-3992.81
3994.45
3993.64
3993.09
3978.15
3958
3935.9
3911.52
3884.52
3861.23
3992.42
3976.97
3955.57
3931.45
3904.17
3875.21
3844.64
3820.66
3797.91
3776.43
3756.21
3789.87
3759.4
3740.24
3722.96
3703.73
3685.85
3708.56
3691.89
3658
3640.89
3563.5
3569.43
3568
3601.65
3583.57
3595.84
3580.13
3650.46
3613.07
3810.34
3832.03
-3994.45
-3993.64
-3993.09
-3978.15
-3958
-3935.9
-3911.52
-3884.52
-3861.23
-3992.42
-3976.97
-3955.57
-3931.45
-3904.17
-3875.21
-3844.64
-3820.66
-3797.91
-3776.43
-3756.21
-3789.87
-3759.4
-3740.24
-3722.96
-3703.73
-3685.85
-3708.56
-3691.89
-3658
-3640.89
-3601.65
-3583.57
-3569.43
-3563.5
-3568
-3595.84
-3580.13
-3650.46
-3613.07
-3810.34
-3832.03
3992.54
3977.38
3957.1
3935.63
3911.42
3879.23
3854.9
3992.5
3977.68
3956.99
3928.83
3900.2
3869.89
3837.98
3812.59
3788.33
3765.27
3743.47
3779.98
3748.51
3727.74
3709.15
3688.28
3668.68
3694.75
3675.27
3640.02
3620.66
3523.13
3524.07
3539.95
3537.11
3581.42
3560.69
3555.5
3573.53
3631.82
3592.89
3801.7
3824.46
-3992.54
-3977.38
-3957.1
-3935.63
-3911.42
-3879.23
-3854.9
-3992.5
-3977.68
-3956.99
-3928.83
-3900.2
-3869.89
-3837.98
-3812.59
-3788.33
-3765.27
-3743.47
-3779.98
-3748.51
-3727.74
-3709.15
-3688.28
-3668.68
-3694.75
-3675.27
-3640.02
-3620.66
-3581.42
-3560.69
-3539.95
-3524.07
-3523.13
-3537.11
-3573.53
-3555.5
-3631.82
-3592.89
-3801.7
-3824.46
3992.53
3977.54
3957.95
3939.72
3932.37
3902.97
3872.48
3848.22
3993.76
3981.53
3976.99
3952.65
3926.36
3896.82
3864.51
3831.36
3804.81
3779.19
3754.64
3731.27
3770.37
3737.94
3715.82
3695.86
3673.34
3651.97
3681.82
3660.28
3624.21
3602.63
3483.06
3466.92
3486.25
3517.17
3513.35
3563.29
3539.9
3532.17
3551.61
3613.82
3573.42
3793.19
3816.96
-3992.53
-3977.54
-3957.95
-3939.72
-3932.37
-3902.97
-3872.48
-3848.22
-3993.76
-3981.53
-3976.99
-3952.65
-3926.36
-3896.82
-3864.51
-3831.36
-3804.81
-3779.19
-3754.64
-3731.27
-3770.37
-3737.94
-3715.82
-3695.86
-3673.34
-3651.97
-3681.82
-3660.28
-3624.21
-3602.63
-3563.29
-3539.9
-3517.17
-3486.25
-3466.92
-3483.06
-3513.35
-3551.61
-3532.17
-3613.82
-3573.42
-3793.19
-3816.96
3993.02
3978.72
3959.68
3953.77
3926.77
3896.9
3866.27
3841.39
3993.68
3992.33
3975.83
3953.15
3927.58
3892.24
3858.69
3824.83
3797.25
3770.41
3744.46
3719.58
3760.99
3727.74
3704.33
3683.26
3659.09
3635.95
3669.52
3646.49
3610.05
3586.7
3476.33
3439.45
3423.83
3427.92
3398.53
3446.22
3477.32
3495.14
3490.71
3547.76
3521.2
3507.29
3530.29
3596.66
3555.12
3784.95
3809.63
-3993.02
-3978.72
-3959.68
-3953.77
-3926.77
-3896.9
-3866.27
-3841.39
-3993.68
-3992.33
-3975.83
-3953.15
-3927.58
-3892.24
-3858.69
-3824.83
-3797.25
-3770.41
-3744.46
-3719.58
-3760.99
-3727.74
-3704.33
-3683.26
-3659.09
-3635.95
-3669.52
-3646.49
-3610.05
-3586.7
-3547.76
-3521.2
-3495.14
-3477.32
-3427.92
-3446.22
-3398.53
-3423.83
-3439.45
-3476.33
-3490.71
-3530.29
-3507.29
-3596.66
-3555.12
-3784.95
-3809.63
3994.11
3982.46
3977.9
3976.63
3953.01
3922.1
3891.68
3860.74
3834.9
3992.49
3977.76
3960.82
3950.18
3918.72
3886.2
3852.94
3818.65
3789.97
3761.99
3734.79
3708.5
3752.03
3718.05
3693.38
3671.2
3645.55
3620.75
3657.87
3633.64
3596.81
3572.8
3455.6
3416.23
3389.35
3364.09
3369.63
3400.93
3336.75
3441.04
3473.39
3456.05
3507.11
3535.91
3483.75
3510.32
3580.86
3539.18
3777.03
3802.66
-3994.11
-3982.46
-3977.9
-3976.63
-3953.01
-3922.1
-3891.68
-3860.74
-3834.9
-3992.49
-3977.76
-3960.82
-3950.18
-3918.72
-3886.2
-3852.94
-3818.65
-3789.97
-3761.99
-3734.79
-3708.5
-3752.03
-3718.05
-3693.38
-3671.2
-3645.55
-3620.75
-3657.87
-3633.64
-3596.81
-3572.8
-3535.91
-3507.11
-3473.39
-3441.04
-3369.63
-3400.93
-3336.75
-3364.09
-3389.35
-3416.23
-3455.6
-3456.05
-3510.32
-3483.75
-3580.86
-3539.18
-3777.03
-3802.66
3993.91
3993.14
3993.32
3979.75
3973.7
3946.29
3917.21
3886.98
3855.76
3828.92
3994.11
3982.52
3875.43
3972.55
3944.19
3913.61
3881.53
3848.02
3813.09
3783.09
3753.86
3725.42
3697.83
3743.45
3708.71
3682.93
3659.7
3632.78
3606.68
3646.63
3621.29
3583.82
3559.68
3401.27
3364.08
3332.86
3303.56
3309.48
3344.5
3382.07
3274.77
3420.53
3461.47
3439.14
3503.94
3523.18
3459.11
3494.37
3566.9
3527.24
3769.47
3796.18
-3993.91
-3993.14
-3993.32
-3979.75
-3973.7
-3946.29
-3917.21
-3886.98
-3855.76
-3828.92
-3994.11
-3982.52
-3875.43
-3972.55
-3944.19
-3913.61
-3881.53
-3848.02
-3813.09
-3783.09
-3753.86
-3725.42
-3697.83
-3743.45
-3708.71
-3682.93
-3659.7
-3632.78
-3606.68
-3646.63
-3621.29
-3583.82
-3559.68
-3523.18
-3503.94
-3461.47
-3420.53
-3382.07
-3309.48
-3344.5
-3274.77
-3303.56
-3332.86
-3364.08
-3401.27
-3439.14
-3459.11
-3494.37
-3566.9
-3527.24
-3769.47
-3796.18
3992.8
3990.97
3970.42
3942.77
3913.56
3883.08
3851.48
3823.54
3994.74
3992.61
4559.92
3990.48
3969.76
3941.19
3910.74
3878.26
3843.92
3808.14
3776.76
3746.15
3716.42
3687.58
3735.16
3699.72
3672.81
3648.47
3620.44
3593.44
3635.72
3609.24
3570.7
3545.46
3344.23
3393.79
3305.78
3272.2
3240.8
3246.87
3283.91
3322.32
3362.51
3210.62
3405.61
3453.19
3489.94
3504.94
3436.64
3492.32
3553.75
3515.05
3762.32
3790.18
-3992.8
-3990.97
-3970.42
-3942.77
-3913.56
-3883.08
-3851.48
-3823.54
-3994.74
-3992.61
-4559.92
-3990.48
-3969.76
-3941.19
-3910.74
-3878.26
-3843.92
-3808.14
-3776.76
-3746.15
-3716.42
-3687.58
-3735.16
-3699.72
-3672.81
-3648.47
-3620.44
-3593.44
-3635.72
-3609.24
-3570.7
-3545.46
-3504.94
-3489.94
-3453.19
-3405.61
-3362.51
-3322.32
-3246.87
-3283.91
-3210.62
-3240.8
-3272.2
-3305.78
-3344.23
-3393.79
-3436.64
-3492.32
-3553.75
-3515.05
-3762.32
-3790.18
3989.85
3968.57
3940.42
3910.78
3879.88
3847.75
3818.72
3989.75
3968.97
3940.6
3909.83
3875.79
3840.34
3803.76
3771.02
3738.93
3707.77
3677.61
3727.32
3691.07
3663.02
3637.47
3608.18
3580.28
3625.06
3597.39
3557.84
3530.7
3280.29
3321.94
3363.51
3242.7
3208.06
3175.27
3181.49
3220.05
3259.64
3300.9
3344.98
3143.77
3394.11
3488.43
3448.81
3451.38
3479.66
3396.49
3539.46
3497.57
3755.64
3784.69
-3989.85
-3968.57
-3940.42
-3910.78
-3879.88
-3847.75
-3818.72
-3989.75
-3968.97
-3940.6
-3909.83
-3875.79
-3840.34
-3803.76
-3771.02
-3738.93
-3707.77
-3677.61
-3727.32
-3691.07
-3663.02
-3637.47
-3608.18
-3580.28
-3625.06
-3597.39
-3557.84
-3530.7
-3488.43
-3448.81
-3394.11
-3344.98
-3300.9
-3259.64
-3181.49
-3220.05
-3143.77
-3175.27
-3208.06
-3242.7
-3280.29
-3321.94
-3363.51
-3451.38
-3396.49
-3479.66
-3539.46
-3497.57
-3755.64
-3784.69
3989.33
3967.48
3938.86
3908.73
3877.3
3844.45
3814.32
3990.16
3970.47
3944.25
3909.02
3873.79
3836.89
3800.27
3766.32
3732.32
3699.54
3667.95
3719.86
3682.8
3653.54
3626.7
3596.01
3566.73
3614.65
3585.81
3545.35
3517.11
3213.84
3253.51
3294.2
3333.49
3176.37
3140.85
3106.82
3113.34
3153.39
3194.27
3236.37
3280.32
3327.1
3074
3376.67
3431.4
3476.02
3478.3
3428.56
3372.16
3523.8
3749.39
3779.57
-3989.33
-3967.48
-3938.86
-3908.73
-3877.3
-3844.45
-3814.32
-3990.16
-3970.47
-3944.25
-3909.02
-3873.79
-3836.89
-3800.27
-3766.32
-3732.32
-3699.54
-3667.95
-3719.86
-3682.8
-3653.54
-3626.7
-3596.01
-3566.73
-3614.65
-3585.81
-3545.35
-3517.11
-3476.02
-3431.4
-3327.1
-3376.67
-3280.32
-3236.37
-3194.27
-3113.34
-3153.39
-3074
-3106.82
-3140.85
-3176.37
-3213.84
-3253.51
-3294.2
-3333.49
-3478.3
-3428.56
-3372.16
-3523.8
-3749.39
-3779.57
3989.13
3966.92
3937.88
3907.37
3875.12
3841.41
3810.29
3991.62
3976.04
3970.7
3941.51
3910.07
3870.4
3833.37
3797.96
3764.06
3727.06
3691.94
3658.61
3712.81
3674.89
3644.38
3616.17
3584.06
3553.14
3604.44
3574.21
3532.13
3504.49
3145.28
3184.86
3225.75
3267.47
3310.75
3107.27
3070.69
3035.38
3042.17
3083.69
3125.86
3168.92
3213.15
3258.69
3304.63
3001.18
3410.94
3439.03
3347.63
3467.75
3508.58
3462.13
3413.43
3358.34
3743.49
3774.77
-3989.13
-3966.92
-3937.88
-3907.37
-3875.12
-3841.41
-3810.29
-3991.62
-3976.04
-3970.7
-3941.51
-3910.07
-3870.4
-3833.37
-3797.96
-3764.06
-3727.06
-3691.94
-3658.61
-3712.81
-3674.89
-3644.38
-3616.17
-3584.06
-3553.14
-3604.44
-3574.21
-3532.13
-3504.49
-3467.75
-3439.03
-3258.69
-3304.63
-3410.94
-3347.63
-3213.15
-3168.92
-3125.86
-3042.17
-3083.69
-3001.18
-3035.38
-3070.69
-3107.27
-3145.28
-3184.86
-3225.75
-3267.47
-3310.75
-3508.58
-3462.13
-3413.43
-3358.34
-3743.49
-3774.77
3989.19
3967.04
3937.99
3906.8
3872.94
3838.43
3806.51
3992.03
3990.73
3969.51
3945.82
3937.15
3901.73
3865.48
3829.2
3793.08
3767.45
3725.25
3685.18
3649.64
3706.06
3667.39
3635.61
3605.77
3572.33
3540.05
3594.85
3562.63
3518.21
3488.07
3074.4
3114.64
3156.14
3198.99
3243.75
3291.86
3035.39
2997.56
2960.87
2968.04
3011.23
3054.89
3099.17
3144.16
3189.86
3235.97
3281.68
2925.27
3452.46
3387.54
3468.43
3325.87
3494.9
3449.8
3410.45
3345.03
3392.76
3737.85
3770.24
-3989.19
-3967.04
-3937.99
-3906.8
-3872.94
-3838.43
-3806.51
-3992.03
-3990.73
-3969.51
-3945.82
-3937.15
-3901.73
-3865.48
-3829.2
-3793.08
-3767.45
-3725.25
-3685.18
-3649.64
-3706.06
-3667.39
-3635.61
-3605.77
-3572.33
-3540.05
-3594.85
-3562.63
-3518.21
-3488.07
-3468.43
-3189.86
-3235.97
-3281.68
-3452.46
-3387.54
-3325.87
-3144.16
-3099.17
-3054.89
-2968.04
-3011.23
-2925.27
-2960.87
-2997.56
-3035.39
-3074.4
-3114.64
-3156.14
-3198.99
-3243.75
-3291.86
-3494.9
-3449.8
-3410.45
-3345.03
-3392.76
-3737.85
-3770.24
3989.84
3968.82
3941.21
3905.02
3870.42
3835.82
3803.06
3990.09
3967.77
3964.62
3932.17
3897.16
3861.11
3824.15
3785.57
3754.36
3711.19
3676.74
3640.54
3699.69
3660.42
3627.56
3595.36
3560.68
3527.23
3586.6
3552.06
3506.59
3000.89
3042.21
3084.61
3128.31
3173.72
3221.36
3271.16
2960.59
2921.35
2883.17
2890.64
2935.64
2981
3026.83
3073.08
3119.78
3167.02
3214.96
3264.07
2846.05
3479.94
3504.16
3423.04
3364.43
3311.24
3481.08
3435.12
3387.73
3319.95
3411.98
3732.58
3766.23
-3989.84
-3968.82
-3941.21
-3905.02
-3870.42
-3835.82
-3803.06
-3990.09
-3967.77
-3964.62
-3932.17
-3897.16
-3861.11
-3824.15
-3785.57
-3754.36
-3711.19
-3676.74
-3640.54
-3699.69
-3660.42
-3627.56
-3595.36
-3560.68
-3527.23
-3586.6
-3552.06
-3506.59
-3119.78
-3167.02
-3214.96
-3264.07
-3479.94
-3504.16
-3423.04
-3364.43
-3311.24
-3073.08
-3026.83
-2981
-2890.64
-2935.64
-2846.05
-2883.17
-2921.35
-2960.59
-3000.89
-3042.21
-3084.61
-3128.31
-3173.72
-3221.36
-3271.16
-3481.08
-3435.12
-3387.73
-3319.95
-3411.98
-3732.58
-3766.23
3991.55
3974.45
3967.94
3935.4
3902.03
3868.24
3834.26
3800.59
3989.06
3987.88
3962.35
3929.04
3893.75
3857.09
3818.94
3779.12
3744.8
3701.83
3666.49
3630.88
3693.66
3653.86
3620.48
3585.14
3549.19
3514.08
3580.19
3544.15
2924.46
2967.12
3010.72
3055.39
3101.56
3149.45
3199.18
3249.48
2882.71
2841.91
2802.1
2809.94
2856.92
2904.22
2951.74
2999.56
3047.59
3096.21
3146.02
3199.03
3261.92
2763.33
3510.71
3456.41
3535.65
3399.31
3338.39
3465.18
3435.92
3448.41
3367.34
3299.37
3727.82
3763.44
-3991.55
-3974.45
-3967.94
-3935.4
-3902.03
-3868.24
-3834.26
-3800.59
-3989.06
-3987.88
-3962.35
-3929.04
-3893.75
-3857.09
-3818.94
-3779.12
-3744.8
-3701.83
-3666.49
-3630.88
-3693.66
-3653.86
-3620.48
-3585.14
-3549.19
-3514.08
-3580.19
-3544.15
-3047.59
-3096.21
-3146.02
-3199.03
-3261.92
-3510.71
-3456.41
-3535.65
-3399.31
-3338.39
-2999.56
-2951.74
-2904.22
-2809.94
-2856.92
-2763.33
-2802.1
-2841.91
-2882.71
-2924.46
-2967.12
-3010.72
-3055.39
-3101.56
-3149.45
-3199.18
-3249.48
-3465.18
-3435.92
-3448.41
-3367.34
-3299.37
-3727.82
-3763.44
3991.17
3989.29
3965.02
3933
3900.19
3866.89
3833.9
3800.34
3987.04
3960.81
3926.82
3891.01
3853.55
3814.51
3773.73
3737.46
3694.03
3657.46
3621.26
3687.64
3646.37
3614.31
3575.71
3538.81
3501.14
3579.37
2844.94
2889.04
2934.02
2979.99
3027.24
3075.92
3126.21
3177.78
3229.84
2801.62
2759.07
2717.42
2725.58
2774.72
2824.18
2873.73
2923.38
2972.99
3022.85
3073.52
3126.29
3183.34
3243.09
3314.95
2676.82
3543.35
3560.35
3491.56
3436.55
3378.36
3469.02
3491.11
3410.96
3490.15
3347.97
3281.77
3723.54
3763.86
-3991.17
-3989.29
-3965.02
-3933
-3900.19
-3866.89
-3833.9
-3800.34
-3987.04
-3960.81
-3926.82
-3891.01
-3853.55
-3814.51
-3773.73
-3737.46
-3694.03
-3657.46
-3621.26
-3687.64
-3646.37
-3614.31
-3575.71
-3538.81
-3501.14
-3579.37
-2972.99
-3022.85
-3073.52
-3126.29
-3183.34
-3243.09
-3314.95
-3543.35
-3560.35
-3491.56
-3436.55
-3378.36
-2923.38
-2873.73
-2824.18
-2725.58
-2774.72
-2676.82
-2717.42
-2759.07
-2801.62
-2844.94
-2889.04
-2934.02
-2979.99
-3027.24
-3075.92
-3126.21
-3177.78
-3229.84
-3469.02
-3491.11
-3410.96
-3490.15
-3347.97
-3281.77
-3723.54
-3763.86
3988.25
3963.87
3932.03
3899.25
3865.42
3831.13
3805.21
3986.53
3959.8
3925.29
3888.92
3850.81
3810.91
3769.09
3731.18
3686.99
3649.18
3612.15
3680.71
3637.11
3604.72
3566.17
3530.48
2762.3
2807.82
2854.31
2901.98
2950.79
3000.74
3051.99
3104.71
3158.45
3212.7
2717.21
2672.58
2628.75
2637.23
2688.81
2740.73
2792.6
2844.33
2895.75
2946.93
2998.32
3050.69
3104.79
3159.3
3208.98
3280.72
3309.93
3362.25
2585.97
3579.31
3591.7
3528.81
3475.5
3419.66
3505.98
3452.57
3519.59
3394.82
3333.12
3267.79
3717.25
3794.03
3752.38
-3988.25
-3963.87
-3932.03
-3899.25
-3865.42
-3831.13
-3805.21
-3986.53
-3959.8
-3925.29
-3888.92
-3850.81
-3810.91
-3769.09
-3731.18
-3686.99
-3649.18
-3612.15
-3680.71
-3637.11
-3604.72
-3566.17
-3530.48
-2895.75
-2946.93
-2998.32
-3050.69
-3104.79
-3159.3
-3208.98
-3280.72
-3309.93
-3362.25
-3579.31
-3591.7
-3528.81
-3475.5
-3419.66
-2844.33
-2792.6
-2740.73
-2637.23
-2688.81
-2628.75
-2585.97
-2672.58
-2717.21
-2762.3
-2807.82
-2854.31
-2901.98
-2950.79
-3000.74
-3051.99
-3104.71
-3158.45
-3212.7
-3505.98
-3452.57
-3519.59
-3394.82
-3333.12
-3267.79
-3717.25
-3794.03
-3752.38
3988.06
3963.95
3932.35
3898.84
3862.77
3825.65
3986.28
3959.23
3924.45
3887.73
3849.08
3807.97
3764.89
3725.56
3680.45
3641.32
3603.13
3672.59
3627.06
3555.76
2676.64
2723.59
2771.08
2820.47
2871.61
2923.44
2976.17
3030.08
3085.05
3140.84
3197.95
2629.29
2581.97
2535.35
2544.58
2598.79
2653.27
2707.92
2762.33
2816.12
2869
2921.36
2973.92
3027.14
3080.64
3132.74
3257.48
3183.51
3325.96
3345.3
3404.18
2490.12
3617.85
3568.23
3515.87
3461.11
3545.33
3494.2
3440.36
3383.53
3323.1
3258.38
3709.24
3786.66
3745.72
-3988.06
-3963.95
-3932.35
-3898.84
-3862.77
-3825.65
-3986.28
-3959.23
-3924.45
-3887.73
-3849.08
-3807.97
-3764.89
-3725.56
-3680.45
-3641.32
-3603.13
-3672.59
-3627.06
-3555.76
-2816.12
-2869
-2921.36
-2973.92
-3027.14
-3080.64
-3132.74
-3257.48
-3183.51
-3325.96
-3345.3
-3404.18
-3617.85
-3568.23
-3515.87
-3461.11
-2762.33
-2707.92
-2653.27
-2544.58
-2598.79
-2535.35
-2581.97
-2490.12
-2629.29
-2676.64
-2723.59
-2771.08
-2820.47
-2871.61
-2923.44
-2976.17
-3030.08
-3085.05
-3140.84
-3197.95
-3545.33
-3494.2
-3440.36
-3383.53
-3323.1
-3258.38
-3709.24
-3786.66
-3745.72
3988.79
3965.96
3935.83
3896.71
3859.15
3821.11
3986.26
3959.22
3924.8
3888.16
3848.46
3805.11
3760.73
3720.28
3674.31
3633.91
3594.21
3664.62
2587.86
2637.03
2683.96
2733.89
2789.16
2843.99
2898.84
2954.09
3010.11
3066.6
3123.81
3185.07
2537.31
2486.35
2436.06
2447.06
2504.57
2561.58
2619.52
2677.49
2734.21
2789.22
2842.96
2896.24
2949.5
3003.04
3055.8
3107.37
3309.65
3238.4
3156.94
3374.83
3388.91
3447.68
2387.83
3658.61
3610.22
3557.79
3503.75
3585.83
3536.11
3484.63
3431.57
3377.44
3320.04
3255.92
3703.42
3781.92
3741.75
-3988.79
-3965.96
-3935.83
-3896.71
-3859.15
-3821.11
-3986.26
-3959.22
-3924.8
-3888.16
-3848.46
-3805.11
-3760.73
-3720.28
-3674.31
-3633.91
-3594.21
-3664.62
-2734.21
-2789.22
-2842.96
-2896.24
-2949.5
-3003.04
-3055.8
-3107.37
-3309.65
-3238.4
-3156.94
-3374.83
-3388.91
-3447.68
-3658.61
-3610.22
-3557.79
-3503.75
-2677.49
-2619.52
-2561.58
-2447.06
-2504.57
-2436.06
-2486.35
-2537.31
-2387.83
-2587.86
-2637.03
-2683.96
-2733.89
-2789.16
-2843.99
-2898.84
-2954.09
-3010.11
-3066.6
-3123.81
-3185.07
-3585.83
-3536.11
-3484.63
-3431.57
-3377.44
-3320.04
-3255.92
-3703.42
-3781.92
-3741.75
3990.36
3971.95
3964.87
3929.43
3893.06
3855.83
3817.69
3986.74
3960.19
3927.56
3892.76
3846.46
3801.8
3756.68
3715.26
3668.52
3626.93
2495.64
2548.47
2596.98
2636.89
2703.05
2762.47
2819.96
2876.86
2934.09
2991.28
3047.88
3101.98
3219.96
3144.1
2440.49
2384.26
2328.32
2343.87
2406.77
2465.65
2525.79
2589.36
2650.08
2708
2763.56
2817.78
2871.54
2925.63
2979.21
3031.47
3079.87
3364.16
3297.99
3227.28
3091.94
3161.02
3435.35
3425.17
3492.41
2276.16
3701.13
3657.22
3601.19
3547.24
3578.21
3528.08
3476.86
3425.73
3380.55
3293.49
3359.16
3778.77
3739.99
-3990.36
-3971.95
-3964.87
-3929.43
-3893.06
-3855.83
-3817.69
-3986.74
-3960.19
-3927.56
-3892.76
-3846.46
-3801.8
-3756.68
-3715.26
-3668.52
-3626.93
-2650.08
-2708
-2763.56
-2817.78
-2871.54
-2925.63
-2979.21
-3031.47
-3079.87
-3364.16
-3297.99
-3227.28
-3091.94
-3161.02
-3435.35
-3425.17
-3492.41
-3701.13
-3657.22
-3601.19
-3547.24
-2589.36
-2525.79
-2465.65
-2343.87
-2406.77
-2328.32
-2384.26
-2440.49
-2495.64
-2276.16
-2548.47
-2596.98
-2636.89
-2703.05
-2762.47
-2819.96
-2876.86
-2934.09
-2991.28
-3047.88
-3101.98
-3219.96
-3144.1
-3578.21
-3528.08
-3476.86
-3425.73
-3380.55
-3293.49
-3359.16
-3778.77
-3739.99
3990.31
3988.17
3961.58
3926.59
3890.48
3853.32
3815.13
3987.3
3962.25
3935.31
3927.31
3886.05
3843.01
3798.49
3752.94
3710.53
3663.27
3620.57
2399
2457.45
2511.16
2554.84
2548.84
2616.79
2679.65
2739.85
2798.64
2857.27
2915.47
2973.07
3029.13
3077.62
3264.3
3178.25
3093.73
2337.48
2273.22
2211.08
2234.04
2305.43
2368.17
2420.88
2497.58
2564.01
2625.48
2683.33
2738.57
2792.73
2847.63
2902.72
2956.74
3012.84
3360.39
3419.51
3287.68
3222.01
3036.34
3104.16
3164.86
3482.36
3474.63
3537.25
2129.39
3705.89
3692.1
3642.54
3590.55
3571.29
3520.78
3469.27
3416.85
3341.83
3404.62
3776
3736.07
-3990.31
-3988.17
-3961.58
-3926.59
-3890.48
-3853.32
-3815.13
-3987.3
-3962.25
-3935.31
-3927.31
-3886.05
-3843.01
-3798.49
-3752.94
-3710.53
-3663.27
-3620.57
-2564.01
-2625.48
-2683.33
-2738.57
-2792.73
-2847.63
-2902.72
-2956.74
-3012.84
-3360.39
-3419.51
-3287.68
-3222.01
-3036.34
-3104.16
-3164.86
-3482.36
-3474.63
-3537.25
-3705.89
-3692.1
-3642.54
-3590.55
-2497.58
-2420.88
-2368.17
-2234.04
-2305.43
-2211.08
-2273.22
-2337.48
-2399
-2457.45
-2129.39
-2511.16
-2554.84
-2548.84
-2616.79
-2679.65
-2739.85
-2798.64
-2857.27
-2915.47
-2973.07
-3029.13
-3077.62
-3264.3
-3178.25
-3093.73
-3571.29
-3520.78
-3469.27
-3416.85
-3341.83
-3404.62
-3776
-3736.07
3986.71
3960.02
3925.05
3888.93
3851.73
3813.15
3988.05
3962.53
3961.11
3924.75
3884.42
3840.58
3795.7
3749.75
3706.34
3658.53
3614.75
2295.79
2363.3
2424.66
2483.66
2465.03
2531.66
2596.48
2658.88
2719.55
2779.65
2838.97
2897.74
2956.76
3019.22
3334.88
3276.63
3207.87
3137
3076.04
3019.07
2227.15
2129.82
2116.58
2122.19
2202.27
2274.51
2329.31
2330.93
2407.47
2477.64
2542.44
2602.82
2659.4
2712.71
2767.59
2825.51
2880.59
2930.8
2965.59
3423.65
3403.94
3341.19
3469.61
3274.73
3213.5
2988.92
3055.75
3118.09
3175.73
3528.85
3521.99
3581.88
2045.28
3729.74
3683.08
3633.43
3564.92
3513.77
3460.91
3395.87
3453.07
3772.86
-3986.71
-3960.02
-3925.05
-3888.93
-3851.73
-3813.15
-3988.05
-3962.53
-3961.11
-3924.75
-3884.42
-3840.58
-3795.7
-3749.75
-3706.34
-3658.53
-3614.75
-2477.64
-2542.44
-2602.82
-2659.4
-2712.71
-2767.59
-2825.51
-2880.59
-2930.8
-2965.59
-3423.65
-3403.94
-3341.19
-3469.61
-3274.73
-3213.5
-2988.92
-3055.75
-3118.09
-3175.73
-3528.85
-3521.99
-3581.88
-3729.74
-3683.08
-3633.43
-2407.47
-2330.93
-2329.31
-2274.51
-2122.19
-2202.27
-2116.58
-2129.82
-2227.15
-2295.79
-2363.3
-2424.66
-2045.28
-2483.66
-2465.03
-2531.66
-2596.48
-2658.88
-2719.55
-2779.65
-2838.97
-2897.74
-2956.76
-3019.22
-3334.88
-3276.63
-3207.87
-3137
-3076.04
-3019.07
-3564.92
-3513.77
-3460.91
-3395.87
-3453.07
-3772.86
3986.21
3959.36
3924.43
3888.4
3851.13
3811.9
3987.9
3987.95
3962.51
3928.53
3883.31
3838.91
3793.58
3747.12
3702.64
3654.31
3609.45
2182.51
2265.55
2333.18
2397.42
2379.11
2448.38
2514.02
2577.71
2639.96
2701.42
2761.83
2821.07
2879.75
2941.7
3393.4
3339.6
3288.59
3226.37
3161.94
3097.73
3032.72
2958.19
2114.51
2044.32
2033.65
2050.98
2183.24
2256.96
2248.93
2321.48
2392.56
2459.68
2522.61
2581.02
2634.23
2680.61
2747.64
2806.47
2859.87
2903.64
2913.29
3461.37
3449.78
3391.78
3333.5
3514.89
3283.66
3232.67
2948.97
3013.19
3075.61
3135.68
3194.68
3574.81
3568.42
3626.64
3770.13
3724.99
3676.87
3559.06
3507.12
3448
3501.68
-3986.21
-3959.36
-3924.43
-3888.4
-3851.13
-3811.9
-3987.9
-3987.95
-3962.51
-3928.53
-3883.31
-3838.91
-3793.58
-3747.12
-3702.64
-3654.31
-3609.45
-2392.56
-2459.68
-2522.61
-2581.02
-2634.23
-2680.61
-2747.64
-2806.47
-2859.87
-2903.64
-2913.29
-3461.37
-3449.78
-3391.78
-3333.5
-3514.89
-3283.66
-3232.67
-2948.97
-3013.19
-3075.61
-3135.68
-3194.68
-3574.81
-3568.42
-3626.64
-3770.13
-3724.99
-3676.87
-2321.48
-2256.96
-2248.93
-2183.24
-2033.65
-2050.98
-2044.32
-2114.51
-2182.51
-2265.55
-2333.18
-2397.42
-2379.11
-2448.38
-2514.02
-2577.71
-2639.96
-2701.42
-2761.83
-2821.07
-2879.75
-2941.7
-3393.4
-3339.6
-3288.59
-3226.37
-3161.94
-3097.73
-3032.72
-2958.19
-3559.06
-3507.12
-3448
-3501.68
3986.4
3959.42
3924.84
3889.16
3851.93
3812.17
3989.6
3969.58
3962.89
3923.74
3882.52
3837.85
3792.04
3745.08
3699.51
3650.77
3604.77
2091.97
2082.88
2172.44
2241.17
2300.58
2296.36
2366.34
2432.54
2496.7
2559.97
2622.75
2684.52
2744.48
2801.9
2855.57
2894.4
3446.52
3397.71
3348.8
3300.16
3242.46
3181.78
3119.52
3056.13
2991.78
2885.33
2933.05
2032.34
2302.57
2030.28
2096.85
2174.72
2167.44
2239.45
2309.56
2377.95
2443.12
2504.11
2559.8
2604.86
2607.08
2672.34
2733.71
2791.65
2847.94