/*--------------------------------*- C++ -*----------------------------------*\
| =========                 |                                                 |
| \\      /  F ield         | OpenFOAM: The Open Source CFD Toolbox           |
|  \\    /   O peration     | Version:  2.4.x                                 |
|   \\  /    A nd           | Web:      www.OpenFOAM.org                      |
|    \\/     M anipulation  |                                                 |
\*---------------------------------------------------------------------------*/
FoamFile
{
    version     2.0;
    format      ascii;
    class       volScalarField;
    location    "10";
    object      gradTx;
}
// * * * * * * * * * * * * * * * * * * * * * * * * * * * * * * * * * * * * * //

dimensions      [0 -1 0 1 0 0 0];

internalField   nonuniform List<scalar> 
6768
(
-0.213717
-0.213717
-0.57583
-0.244884
-0.57583
-0.244884
-1.12309
-0.639303
-0.31008
-1.12309
-0.639303
-0.31008
-1.77111
-1.18782
-0.750998
-0.291009
-1.77111
-1.18782
-0.750998
-0.291009
-2.38826
-1.76754
-1.47241
-0.714708
-0.287304
-2.38826
-1.76754
-1.47241
-0.714708
-0.287304
-2.9803
-2.2651
-2.38363
-1.19207
-1.89702
-0.603656
-0.302827
-2.9803
-2.2651
-2.38363
-1.19207
-1.89702
-0.603656
-0.302827
-3.48397
-2.77668
-3.12576
-2.62563
-0.882288
-1.51557
-2.23861
-0.429785
-3.48397
-2.77668
-3.12576
-2.62563
-0.882288
-1.51557
-2.23861
-0.429785
-4.04738
-3.31526
-3.74647
-3.38164
-2.99842
-0.936375
-1.66869
-2.50235
-0.441851
-4.04738
-3.31526
-3.74647
-3.38164
-2.99842
-0.936375
-1.66869
-2.50235
-0.441851
-4.6062
-3.84208
-4.3215
-4.10373
-3.69715
-3.60251
-1.03527
-1.63385
-2.14787
-2.98738
-0.470782
-4.6062
-3.84208
-4.3215
-4.10373
-3.69715
-3.60251
-1.03527
-1.63385
-2.14787
-2.98738
-0.470782
-5.15533
-4.3606
-4.90775
-4.65103
-4.39792
-4.55274
-3.8595
-4.56618
-1.03154
-1.37099
-2.38133
-3.32569
-0.546665
-5.15533
-4.3606
-4.90775
-4.65103
-4.39792
-4.55274
-3.8595
-4.56618
-1.03154
-1.37099
-2.38133
-3.32569
-0.546665
-5.70479
-4.86557
-5.50856
-5.22432
-4.85542
-5.24702
-4.18906
-4.64336
-5.01072
-0.616322
-1.49273
-2.6794
-3.72302
-5.70479
-4.86557
-5.50856
-5.22432
-4.85542
-5.24702
-4.18906
-4.64336
-5.01072
-0.616322
-1.49273
-2.6794
-3.72302
-6.33988
-5.3475
-6.14748
-5.79369
-5.54718
-5.97115
-5.60691
-4.57116
-4.87625
-5.28482
-5.86854
-0.627831
-1.67067
-3.15205
-4.33022
-6.33988
-5.3475
-6.14748
-5.79369
-5.54718
-5.97115
-5.60691
-4.57116
-4.87625
-5.28482
-5.86854
-0.627831
-1.67067
-3.15205
-4.33022
-6.83592
-5.66729
-6.16273
-6.83993
-6.38817
-6.17895
-6.49663
-6.12601
-4.86256
-5.06753
-5.47307
-5.95204
-6.40306
-0.57062
-1.70254
-3.81104
-5.06963
-6.83592
-5.66729
-6.16273
-6.83993
-6.38817
-6.17895
-6.49663
-6.12601
-4.86256
-5.06753
-5.47307
-5.95204
-6.40306
-0.57062
-1.70254
-3.81104
-5.06963
-7.23788
-6.65084
-7.43913
-7.09685
-6.77639
-7.09047
-6.76148
-5.25349
-5.08134
-5.61652
-6.07004
-6.55611
-7.00442
-0.87707
-2.15582
-3.99182
-5.60582
-5.89234
-7.23788
-6.65084
-7.43913
-7.09685
-6.77639
-7.09047
-6.76148
-5.25349
-5.08134
-5.61652
-6.07004
-6.55611
-7.00442
-0.87707
-2.15582
-3.99182
-5.60582
-5.89234
-7.73726
-7.13382
-8.07058
-7.66667
-7.39847
-7.71581
-7.37626
-5.35645
-4.76908
-5.38863
-6.0264
-6.67852
-7.10486
-7.67895
-1.19808
-2.39347
-6.08869
-8.7534
-6.50235
-7.73726
-7.13382
-8.07058
-7.66667
-7.39847
-7.71581
-7.37626
-5.35645
-4.76908
-5.38863
-6.0264
-6.67852
-7.10486
-7.67895
-1.19808
-2.39347
-6.08869
-8.7534
-6.50235
-8.41163
-7.41631
-7.9204
-8.79821
-8.2508
-8.01057
-8.35651
-8.02377
-4.33134
-4.21152
-5.13471
-5.91033
-6.68865
-7.27452
-8.05009
-8.34095
-3.64289
-10.7625
-14.4163
-3.70801
-8.41163
-7.41631
-7.9204
-8.79821
-8.2508
-8.01057
-8.35651
-8.02377
-4.33134
-4.21152
-5.13471
-5.91033
-6.68865
-7.27452
-8.05009
-8.34095
-3.64289
-10.7625
-14.4163
-3.70801
-8.92296
-9.23212
-8.38062
-9.35271
-8.86741
-8.59688
-9.02355
-8.69782
-2.9171
-3.50207
-4.70123
-5.65604
-6.49899
-7.35174
-8.29497
-8.20365
-8.60721
-9.02099
-6.09483
-26.9124
-1.33345
6.36368
0.473103
-8.92296
-9.23212
-8.38062
-9.35271
-8.86741
-8.59688
-9.02355
-8.69782
-2.9171
-3.50207
-4.70123
-5.65604
-6.49899
-7.35174
-8.29497
-8.20365
-8.60721
-9.02099
-6.09483
-26.9124
-1.33345
6.36368
0.473103
-9.93106
-8.67937
-9.24455
-9.96104
-9.42979
-9.18696
-9.80323
-9.41255
-1.656
-2.97533
-4.30297
-5.37056
-6.26359
-6.96889
-7.91235
-8.85201
-9.4436
-8.2986
-9.31335
-9.75411
2.13845
2.85878
0.860898
21.1115
6.7212
1.29898
-9.93106
-8.67937
-9.24455
-9.96104
-9.42979
-9.18696
-9.80323
-9.41255
-1.656
-2.97533
-4.30297
-5.37056
-6.26359
-6.96889
-7.91235
-8.85201
-9.4436
-8.2986
-9.31335
-9.75411
2.13845
2.85878
0.860898
21.1115
6.7212
1.29898
-10.474
-10.7757
-9.69261
-10.3918
-10.2488
-9.69292
-10.6391
-10.1101
-1.19582
-2.72848
-4.01756
-5.14192
-6.1352
-7.04434
-8.1167
-9.65818
-9.94529
-9.63431
-8.55706
-9.70853
-10.0883
-10.5182
4.14071
8.03578
3.87505
0.779703
-10.474
-10.7757
-9.69261
-10.3918
-10.2488
-9.69292
-10.6391
-10.1101
-1.19582
-2.72848
-4.01756
-5.14192
-6.1352
-7.04434
-8.1167
-9.65818
-9.94529
-9.63431
-8.55706
-9.70853
-10.0883
-10.5182
4.14071
8.03578
3.87505
0.779703
-11.2758
-10.1613
-10.8204
-10.7643
-10.3887
-10.7786
-11.6021
-10.8483
-1.23689
-2.49958
-3.85747
-4.96588
-6.00387
-6.95228
-7.84886
-10.4351
-10.7543
-10.0773
-8.61542
-9.73363
-10.5341
-10.8951
-11.3134
2.73108
3.58889
1.69444
-0.11661
-11.2758
-10.1613
-10.8204
-10.7643
-10.3887
-10.7786
-11.6021
-10.8483
-1.23689
-2.49958
-3.85747
-4.96588
-6.00387
-6.95228
-7.84886
-10.4351
-10.7543
-10.0773
-8.61542
-9.73363
-10.5341
-10.8951
-11.3134
2.73108
3.58889
1.69444
-0.11661
-11.8312
-10.6302
-11.1836
-11.2325
-11.237
-12.3726
-11.7393
-1.70757
-2.61367
-3.89875
-5.02317
-5.91922
-6.85675
-7.76414
-11.2738
-11.6424
-11.134
-8.54368
-9.24893
-10.1077
-11.6527
-10.5059
-11.722
-12.1452
1.66758
2.10315
0.496978
-0.516703
-11.8312
-10.6302
-11.1836
-11.2325
-11.237
-12.3726
-11.7393
-1.70757
-2.61367
-3.89875
-5.02317
-5.91922
-6.85675
-7.76414
-11.2738
-11.6424
-11.134
-8.54368
-9.24893
-10.1077
-11.6527
-10.5059
-11.722
-12.1452
1.66758
2.10315
0.496978
-0.516703
-12.3409
-11.2085
-11.7425
-12.0164
-12.0521
-12.7698
-13.1986
-12.4992
-1.57918
-3.1584
-3.96232
-4.86487
-5.85402
-6.77249
-7.68062
-12.1127
-12.5221
-12.0651
-8.53626
-9.4881
-10.6315
-12.5548
-12.0011
-11.3689
-12.5509
-12.9633
0.566596
0.734427
-0.261841
-0.357224
-1.5698
-12.3409
-11.2085
-11.7425
-12.0164
-12.0521
-12.7698
-13.1986
-12.4992
-1.57918
-3.1584
-3.96232
-4.86487
-5.85402
-6.77249
-7.68062
-12.1127
-12.5221
-12.0651
-8.53626
-9.4881
-10.6315
-12.5548
-12.0011
-11.3689
-12.5509
-12.9633
0.566596
0.734427
-0.261841
-0.357224
-1.5698
-12.842
-11.6085
-11.9891
-12.5786
-12.7873
-13.645
-13.766
-13.4277
-2.08555
-2.95463
-3.43475
-4.394
-5.05668
-5.84298
-6.7219
-7.61709
-12.9687
-13.381
-12.9581
-8.45628
-9.46193
-10.6043
-13.4052
-13.0528
-12.9568
-12.1039
-11.1112
-13.3769
-13.7771
0.345275
0.0090118
0.248776
-0.806947
-1.36908
-12.842
-11.6085
-11.9891
-12.5786
-12.7873
-13.645
-13.766
-13.4277
-2.08555
-2.95463
-3.43475
-4.394
-5.05668
-5.84298
-6.7219
-7.61709
-12.9687
-13.381
-12.9581
-8.45628
-9.46193
-10.6043
-13.4052
-13.0528
-12.9568
-12.1039
-11.1112
-13.3769
-13.7771
0.345275
0.0090118
0.248776
-0.806947
-1.36908
-13.3804
-11.9324
-12.4999
-13.1209
-13.5635
-14.0208
-14.2706
-14.5926
-14.1787
-2.33252
-3.13649
-3.85109
-4.59475
-5.20797
-5.90729
-6.69618
-7.55095
-13.7779
-14.2096
-13.8024
-8.34132
-9.22234
-10.5166
-14.2163
-13.8888
-13.7288
-13.1525
-14.0654
-12.754
-11.5747
-10.8063
-14.1712
-14.5686
-0.232499
-0.400406
-1.21566
-1.15172
-13.3804
-11.9324
-12.4999
-13.1209
-13.5635
-14.0208
-14.2706
-14.5926
-14.1787
-2.33252
-3.13649
-3.85109
-4.59475
-5.20797
-5.90729
-6.69618
-7.55095
-13.7779
-14.2096
-13.8024
-8.34132
-9.22234
-10.5166
-14.2163
-13.8888
-13.7288
-13.1525
-14.0654
-12.754
-11.5747
-10.8063
-14.1712
-14.5686
-0.232499
-0.400406
-1.21566
-1.15172
-13.8675
-12.3933
-12.8393
-13.5238
-13.9508
-14.2966
-14.7714
-15.054
-15.3313
-14.9405
-1.71207
-2.666
-3.45781
-4.12635
-4.72279
-5.28783
-5.95285
-6.68962
-7.48697
-14.5845
-15.0075
-14.6828
-8.2394
-9.05001
-9.66183
-15.2734
-14.4112
-14.6717
-13.9447
-13.1619
-14.9355
-14.1208
-11.9594
-12.8391
-10.9572
-11.4225
-14.9619
-15.3165
-0.237659
-0.69847
-0.958693
-13.8675
-12.3933
-12.8393
-13.5238
-13.9508
-14.2966
-14.7714
-15.054
-15.3313
-14.9405
-1.71207
-2.666
-3.45781
-4.12635
-4.72279
-5.28783
-5.95285
-6.68962
-7.48697
-14.5845
-15.0075
-14.6828
-8.2394
-9.05001
-9.66183
-15.2734
-14.4112
-14.6717
-13.9447
-14.9355
-14.1208
-13.1619
-11.9594
-12.8391
-10.9572
-11.4225
-14.9619
-15.3165
-0.237659
-0.69847
-0.958693
-14.3361
-14.8319
-13.4403
-13.8148
-14.1281
-14.8482
-15.3165
-15.7333
-16.0374
-15.648
-1.096
-2.14265
-3.05941
-3.82257
-4.30422
-4.75698
-5.31041
-5.95265
-6.66557
-7.43339
-15.366
-15.77
-15.4602
-8.17014
-8.99621
-9.86206
-15.8198
-15.3804
-15.7716
-15.0399
-14.83
-13.8266
-15.584
-14.9079
-12.1627
-13.2955
-10.6536
-11.3736
-15.7085
-16.017
-0.502167
-14.3361
-14.8319
-13.4403
-13.8148
-14.1281
-14.8482
-15.3165
-15.7333
-16.0374
-15.648
-1.096
-2.14265
-3.05941
-3.82257
-4.30422
-4.75698
-5.31041
-5.95265
-6.66557
-7.43339
-15.366
-15.77
-15.4602
-8.17014
-8.99621
-9.86206
-15.8198
-15.3804
-15.7716
-15.0399
-15.584
-14.9079
-14.83
-13.8266
-12.1627
-13.2955
-10.6536
-11.3736
-15.7085
-16.017
-0.502167
-15.3169
-15.8443
-16.2191
-14.5812
-15.4126
-15.8322
-16.4953
-16.5808
-16.3501
-0.395807
-1.26879
-2.76752
-3.79686
-4.09732
-4.35213
-4.64599
-5.24403
-5.90442
-6.61516
-7.3713
-16.0973
-16.4889
-16.1721
-8.08236
-8.91431
-9.76922
-16.4743
-16.1085
-16.789
-15.9158
-14.9402
-15.4738
-14.138
-16.5151
-15.9702
-12.2263
-13.1816
-10.5364
-11.3286
-16.4048
-16.7152
-15.3169
-15.8443
-16.2191
-14.5812
-15.4126
-15.8322
-16.4953
-16.5808
-16.3501
-0.395807
-1.26879
-2.76752
-3.79686
-4.09732
-4.35213
-4.64599
-5.24403
-5.90442
-6.61516
-7.3713
-16.0973
-16.4889
-16.1721
-8.08236
-8.91431
-9.76922
-16.4743
-16.1085
-16.789
-15.9158
-16.5151
-15.9702
-15.4738
-14.9402
-14.138
-12.2263
-13.1816
-10.5364
-11.3286
-16.4048
-16.7152
-16.682
-15.0408
-15.9913
-16.2609
-17.1709
-17.1712
-17.0276
-0.126056
-0.973088
-3.33314
-4.19608
-4.26006
-4.1917
-4.372
-5.07285
-5.78748
-6.52437
-7.289
-16.7931
-17.1873
-16.869
-7.97791
-8.80961
-9.66845
-17.2353
-16.8891
-17.4292
-16.9947
-15.14
-15.7964
-16.3269
-14.1685
-17.4098
-17.0878
-13.1468
-12.166
-10.4438
-11.2362
-17.1054
-17.403
-16.682
-15.0408
-15.9913
-16.2609
-17.1709
-17.1712
-17.0276
-0.126056
-0.973088
-3.33314
-4.19608
-4.26006
-4.1917
-4.372
-5.07285
-5.78748
-6.52437
-7.289
-16.7931
-17.1873
-16.869
-7.97791
-8.80961
-9.66845
-17.2353
-16.8891
-17.4292
-16.9947
-17.4098
-17.0878
-16.3269
-15.7964
-15.14
-14.1685
-12.166
-13.1468
-10.4438
-11.2362
-17.1054
-17.403
-17.1521
-15.4791
-16.8092
-16.7532
-17.0811
-17.8777
-18.0224
-17.6523
-0.661677
-1.8654
-3.8355
-5.09495
-5.13898
-4.18238
-3.65944
-3.97341
-4.82285
-5.61472
-6.38825
-7.17259
-17.5064
-17.9027
-17.5755
-7.85035
-8.68833
-9.55625
-17.9778
-17.6717
-18.1747
-17.8348
-15.3671
-16.6019
-16.9885
-17.8125
-14.4793
-18.2683
-17.9517
-12.9647
-12.0028
-10.317
-11.0865
-17.7754
-18.0294
-17.1521
-15.4791
-16.8092
-16.7532
-17.0811
-17.8777
-18.0224
-17.6523
-0.661677
-1.8654
-3.8355
-5.09495
-5.13898
-4.18238
-3.65944
-3.97341
-4.82285
-5.61472
-6.38825
-7.17259
-17.5064
-17.9027
-17.5755
-7.85035
-8.68833
-9.55625
-17.9778
-17.6717
-18.1747
-17.8348
-18.2683
-17.9517
-17.8125
-16.9885
-16.6019
-15.3671
-14.4793
-12.0028
-12.9647
-10.317
-11.0865
-17.7754
-18.0294
-17.6263
-15.9157
-17.4953
-18.0468
-17.8548
-18.3614
-18.6259
-18.3161
-0.977938
-2.1486
-5.33325
-8.15748
-4.68716
-2.57111
-2.92008
-3.56522
-4.53146
-5.40376
-6.22601
-7.03505
-18.153
-18.5415
-18.2962
-7.70593
-8.54216
-9.40841
-18.7091
-18.4316
-18.9033
-18.6477
-14.7852
-14.7677
-15.7696
-18.0239
-17.2427
-19.026
-18.9819
-18.5341
-13.1654
-19.0423
-18.7126
-12.5461
-11.8509
-10.1413
-10.8928
-18.3891
-18.6518
-17.6263
-15.9157
-17.4953
-18.0468
-17.8548
-18.3614
-18.6259
-18.3161
-0.977938
-2.1486
-5.33325
-8.15748
-4.68716
-2.57111
-2.92008
-3.56522
-4.53146
-5.40376
-6.22601
-7.03505
-18.153
-18.5415
-18.2962
-7.70593
-8.54216
-9.40841
-18.7091
-18.4316
-18.9033
-18.6477
-19.0423
-18.7126
-18.5341
-18.9819
-18.0239
-19.026
-17.2427
-15.7696
-14.7677
-14.7852
-13.1654
-11.8509
-12.5461
-10.1413
-10.8928
-18.3891
-18.6518
-18.4526
-15.9603
-16.5321
-16.9862
-18.5168
-18.4261
-18.8718
-19.1594
-18.912
-2.94937
-9.78547
-16.3296
4.45159
0.0585753
-1.38116
-2.38999
-3.26556
-4.26484
-5.17669
-6.04378
-6.87901
-18.7662
-19.1548
-18.9339
-7.54603
-8.38999
-9.24523
-19.3394
-19.1218
-19.5871
-19.4305
-14.8179
-15.5985
-16.0887
-17.1387
-18.8361
-19.4155
-18.3776
-19.0249
-19.7931
-13.5165
-19.0395
-20.152
-12.911
-11.6595
-9.94928
-10.608
-19.0265
-19.2641
-18.4526
-15.9603
-16.5321
-16.9862
-18.5168
-18.4261
-18.8718
-19.1594
-18.912
-2.94937
-9.78547
-16.3296
4.45159
0.0585753
-1.38116
-2.38999
-3.26556
-4.26484
-5.17669
-6.04378
-6.87901
-18.7662
-19.1548
-18.9339
-7.54603
-8.38999
-9.24523
-19.3394
-19.1218
-19.5871
-19.4305
-20.152
-19.0395
-19.7931
-19.0249
-18.8361
-19.4155
-18.3776
-17.1387
-16.0887
-15.5985
-14.8179
-13.5165
-11.6595
-12.911
-9.94928
-10.608
-19.0265
-19.2641
-18.9365
-18.9704
-19.8327
-17.1548
-17.862
-19.075
-19.1836
-19.4088
-19.7163
-19.4897
-5.36738
-24.6474
-1.57485
19.564
6.02809
1.26235
-0.851384
-2.11692
-3.0743
-4.05785
-4.95752
-5.84053
-6.69937
-19.4037
-19.7948
-19.5609
-7.37965
-8.23186
-9.08613
-19.993
-19.7844
-20.2516
-20.1603
-13.9473
-15.6664
-16.8725
-18.08
-19.7534
-20.1738
-20.2202
-19.3889
-20.8331
-21.1601
-12.9629
-20.156
-20.8104
-11.8669
-11.1168
-9.80238
-10.6353
-19.6383
-19.8419
-18.9365
-18.9704
-19.8327
-17.1548
-17.862
-19.075
-19.1836
-19.4088
-19.7163
-19.4897
-5.36738
-24.6474
-1.57485
19.564
6.02809
1.26235
-0.851384
-2.11692
-3.0743
-4.05785
-4.95752
-5.84053
-6.69937
-19.4037
-19.7948
-19.5609
-7.37965
-8.23186
-9.08613
-19.993
-19.7844
-20.2516
-20.1603
-20.8104
-20.156
-21.1601
-20.8331
-20.2202
-19.7534
-20.1738
-19.3889
-18.08
-16.8725
-15.6664
-13.9473
-12.9629
-11.8669
-11.1168
-9.80238
-10.6353
-19.6383
-19.8419
-20.3587
-20.4415
-18.3119
-19.4347
-19.702
-19.9644
-20.2562
-20.0421
1.96461
3.81578
0.46076
3.97362
7.51914
3.68461
0.954828
-0.823118
-2.00929
-2.96706
-3.90019
-4.79477
-5.66187
-6.5253
-20.011
-20.3879
-20.2073
-7.19738
-8.0521
-8.9154
-20.6153
-20.4497
-20.9152
-20.7109
-15.3383
-14.0809
-16.4495
-17.7043
-19.0231
-20.7559
-21.0978
-21.349
-21.644
-20.4133
-22.073
-21.4348
-20.5384
-20.6294
-11.9231
-11.0969
-9.57073
-9.9644
-20.201
-20.3611
-20.3587
-20.4415
-18.3119
-19.4347
-19.702
-19.9644
-20.2562
-20.0421
1.96461
3.81578
0.46076
3.97362
7.51914
3.68461
0.954828
-0.823118
-2.00929
-2.96706
-3.90019
-4.79477
-5.66187
-6.5253
-20.011
-20.3879
-20.2073
-7.19738
-8.0521
-8.9154
-20.6153
-20.4497
-20.9152
-20.7109
-20.6294
-20.5384
-21.4348
-22.073
-21.644
-21.349
-20.7559
-21.0978
-20.4133
-19.0231
-17.7043
-16.4495
-15.3383
-14.0809
-11.9231
-11.0969
-9.57073
-9.9644
-20.201
-20.3611
-20.8851
-18.7989
-19.8766
-20.1983
-20.4458
-20.7136
-20.5315
2.60533
3.46331
1.68999
0.112244
-0.905418
-2.02972
-2.87899
-3.76767
-4.63314
-5.48588
-6.34137
-20.5654
-20.9454
-20.7849
-7.01215
-7.85446
-8.70181
-21.2173
-21.0729
-21.5745
-21.4067
-15.7754
-14.1338
-12.5089
-17.1705
-18.5599
-19.9934
-21.8381
-22.1572
-22.4341
-22.6878
-22.867
-21.4877
-23.7807
-21.6626
-22.8022
-11.453
-10.9491
-11.1714
-9.2798
-9.73574
-20.7237
-20.8642
-20.8851
-18.7989
-19.8766
-20.1983
-20.4458
-20.7136
-20.5315
2.60533
3.46331
1.68999
0.112244
-0.905418
-2.02972
-2.87899
-3.76767
-4.63314
-5.48588
-6.34137
-20.5654
-20.9454
-20.7849
-7.01215
-7.85446
-8.70181
-21.2173
-21.0729
-21.5745
-21.4067
-21.6626
-22.8022
-23.7807
-22.867
-22.6878
-22.4341
-21.8381
-22.1572
-21.4877
-19.9934
-18.5599
-17.1705
-15.7754
-14.1338
-12.5089
-11.453
-11.1714
-10.9491
-9.2798
-9.73574
-20.7237
-20.8642
-21.3733
-19.2271
-20.3054
-20.6583
-20.9027
-21.187
-21.0256
1.77672
2.40627
0.693806
-0.134882
-1.42401
-2.09944
-2.85042
-3.6932
-4.46988
-5.29422
-6.15277
-21.107
-21.5103
-21.3653
-6.81741
-7.67378
-8.49815
-21.7974
-21.6952
-22.2615
-22.0312
-16.4852
-14.9727
-13.5245
-12.3079
-17.9687
-19.4731
-21.0294
-23.0394
-23.3439
-23.6077
-23.8107
-23.9611
-24.1326
-22.649
-24.886
-23.1272
-22.2486
-10.2127
-10.8259
-11.1652
-9.11441
-21.2537
-21.4001
-21.3733
-19.2271
-20.3054
-20.6583
-20.9027
-21.187
-21.0256
1.77672
2.40627
0.693806
-0.134882
-1.42401
-2.09944
-2.85042
-3.6932
-4.46988
-5.29422
-6.15277
-21.107
-21.5103
-21.3653
-6.81741
-7.67378
-8.49815
-21.7974
-21.6952
-22.2615
-22.0312
-22.2486
-23.1272
-24.1326
-24.886
-23.9611
-23.8107
-23.6077
-23.0394
-23.3439
-22.649
-21.0294
-19.4731
-17.9687
-16.4852
-14.9727
-13.5245
-12.3079
-10.2127
-10.8259
-11.1652
-9.11441
-21.2537
-21.4001
-21.8597
-19.6418
-20.8326
-21.1354
-21.3522
-21.6447
-21.5124
0.591123
0.831286
-0.228236
0.532361
-0.655624
-1.27341
-2.25967
-3.25513
-3.32461
-4.46735
-5.09948
-5.96474
-21.6425
-22.0392
-21.9154
-6.62988
-7.47112
-8.31557
-22.3575
-22.2808
-22.8726
-23.0791
-17.2689
-15.7574
-14.318
-13.0379
-11.866
-18.8309
-20.4564
-22.1625
-24.3538
-24.6643
-24.8936
-25.0492
-25.1875
-25.3235
-25.4676
-23.9443
-24.5971
-23.4794
-25.7942
-23.1004
-9.03689
-9.70693
-9.96094
-10.1466
-21.7678
-21.8773
-21.8597
-19.6418
-20.8326
-21.1354
-21.3522
-21.6447
-21.5124
0.591123
0.831286
-0.228236
0.532361
-0.655624
-1.27341
-2.25967
-3.25513
-3.32461
-4.46735
-5.09948
-5.96474
-21.6425
-22.0392
-21.9154
-6.62988
-7.47112
-8.31557
-22.3575
-22.2808
-22.8726
-23.0791
-23.1004
-23.4794
-25.3235
-25.4676
-24.5971
-25.7942
-25.1875
-25.0492
-24.8936
-24.3538
-24.6643
-23.9443
-22.1625
-20.4564
-18.8309
-17.2689
-15.7574
-14.318
-13.0379
-11.866
-9.03689
-9.70693
-9.96094
-10.1466
-21.7678
-21.8773
-22.3127
-20.0348
-21.4344
-21.3542
-21.7951
-22.0928
-21.9713
0.435734
-0.371601
-0.353687
-0.173266
-0.873056
-0.702902
-1.69339
-2.30521
-2.52207
-3.45196
-4.1422
-5.25812
-5.82979
-22.1596
-22.5745
-22.4524
-6.43038
-7.27095
-8.13689
-22.9241
-22.8954
-23.4311
-23.4557
-18.0659
-16.4872
-15.0015
-13.6392
-12.3849
-11.192
-19.7385
-21.515
-23.4102
-25.845
-26.1495
-26.3144
-26.4139
-26.4872
-26.5694
-26.6386
-26.7142
-25.4191
-25.2101
-25.418
-24.3308
-26.184
-8.81201
-9.60585
-9.8446
-10.2467
-9.60317
-22.2821
-22.4089
-22.3127
-20.0348
-21.4344
-21.3542
-21.7951
-22.0928
-21.9713
0.435734
-0.371601
-0.353687
-0.173266
-0.873056
-0.702902
-1.69339
-2.30521
-2.52207
-3.45196
-4.1422
-5.25812
-5.82979
-22.1596
-22.5745
-22.4524
-6.43038
-7.27095
-8.13689
-22.9241
-22.8954
-23.4311
-23.4557
-24.3308
-26.5694
-26.6386
-26.7142
-25.2101
-25.418
-26.184
-26.4872
-26.4139
-26.3144
-25.845
-26.1495
-25.4191
-23.4102
-21.515
-19.7385
-18.0659
-16.4872
-15.0015
-13.6392
-12.3849
-11.192
-8.81201
-9.60585
-9.8446
-10.2467
-9.60317
-22.2821
-22.4089
-22.7869
-20.3741
-21.8898
-21.7936
-22.2404
-22.526
-22.432
-0.222466
0.025023
-0.675174
-0.63964
-1.08923
-1.75005
-2.288
-3.06906
-3.96775
-3.98788
-4.69109
-5.62384
-22.6923
-23.1192
-22.985
-6.19518
-7.03179
-7.88703
-23.4443
-23.5674
-23.6759
-18.8637
-17.1701
-15.5953
-14.1501
-12.8093
-11.5674
-10.1884
-20.692
-22.6697
-24.8116
-27.5434
-27.7999
-27.9108
-27.9191
-27.9142
-27.8806
-27.8485
-27.8647
-28.1918
-27.0973
-24.9807
-24.3803
-26.2724
-27.0004
-27.4092
-8.45982
-8.83194
-9.37863
-9.06238
-8.35482
-22.8323
-22.9847
-22.7869
-20.3741
-21.8898
-21.7936
-22.2404
-22.526
-22.432
-0.222466
0.025023
-0.675174
-0.63964
-1.08923
-1.75005
-2.288
-3.06906
-3.96775
-3.98788
-4.69109
-5.62384
-22.6923
-23.1192
-22.985
-6.19518
-7.03179
-7.88703
-23.4443
-23.5674
-23.6759
-27.8806
-27.8485
-27.8647
-28.1918
-24.9807
-24.3803
-26.2724
-27.0004
-27.4092
-27.9142
-27.9191
-27.9108
-27.5434
-27.7999
-27.0973
-24.8116
-22.6697
-20.692
-18.8637
-17.1701
-15.5953
-14.1501
-12.8093
-11.5674
-10.1884
-8.45982
-8.83194
-9.37863
-9.06238
-8.35482
-22.8323
-22.9847
-23.6493
-20.2429
-21.0029
-22.4486
-22.5119
-22.7428
-22.9464
-22.8088
-0.32587
-0.339596
-0.530862
-0.757171
-1.22649
-1.79417
-2.40944
-3.01372
-3.59938
-4.12231
-4.85298
-5.44731
-23.23
-23.7091
-23.5116
-6.01915
-6.78454
-7.64832
-23.6311
-24.6331
-19.6518
-17.8005
-16.1125
-14.5905
-13.1989
-11.9291
-10.7298
-9.62493
-21.6894
-23.9408
-26.4131
-29.5136
-29.6799
-29.6902
-29.5824
-29.4515
-29.2825
-29.1201
-28.9556
-28.6164
-28.5896
-29.0732
-25.7815
-26.0354
-25.165
-26.7817
-27.1112
-8.10277
-7.53229
-7.95627
-8.0029
-8.61704
-23.3422
-23.6431
-23.6493
-20.2429
-21.0029
-22.4486
-22.5119
-22.7428
-22.9464
-22.8088
-0.32587
-0.339596
-0.530862
-0.757171
-1.22649
-1.79417
-2.40944
-3.01372
-3.59938
-4.12231
-4.85298
-5.44731
-23.23
-23.7091
-23.5116
-6.01915
-6.78454
-7.64832
-23.6311
-24.6331
-29.2825
-29.1201
-28.9556
-28.6164
-28.5896
-25.7815
-26.0354
-25.165
-26.7817
-27.1112
-29.4515
-29.5824
-29.6902
-29.5136
-29.6799
-29.0732
-26.4131
-23.9408
-21.6894
-19.6518
-17.8005
-16.1125
-14.5905
-13.1989
-11.9291
-10.7298
-9.62493
-8.10277
-7.53229
-7.95627
-8.0029
-8.61704
-23.3422
-23.6431
-24.0987
-23.991
-21.4367
-22.7492
-22.9942
-23.2315
-23.7014
-23.0187
-0.257045
-0.474788
-0.837304
-1.31072
-1.84133
-2.39552
-2.90909
-3.50323
-4.01317
-4.68871
-5.36333
-23.7027
-24.2207
-24.3722
-5.90878
-6.5314
-7.42908
-24.4027
-20.4498
-18.4107
-16.5893
-14.9683
-13.5352
-12.2274
-11.0619
-10.0084
-9.01457
-22.7525
-25.3628
-28.2776
-31.839
-31.8629
-31.6966
-31.4247
-31.092
-30.7823
-30.477
-30.1852
-29.8198
-29.3511
-29.9829
-27.4499
-31.4406
-25.564
-24.8509
-26.2561
-26.7816
-27.3848
-7.24273
-6.85011
-7.09925
-6.84881
-7.83707
-8.11976
-23.6361
-24.1965
-24.0987
-23.991
-21.4367
-22.7492
-22.9942
-23.2315
-23.7014
-23.0187
-0.257045
-0.474788
-0.837304
-1.31072
-1.84133
-2.39552
-2.90909
-3.50323
-4.01317
-4.68871
-5.36333
-23.7027
-24.2207
-24.3722
-5.90878
-6.5314
-7.42908
-24.4027
-30.7823
-30.477
-30.1852
-29.8198
-29.3511
-29.9829
-27.4499
-25.564
-24.8509
-26.2561
-26.7816
-27.3848
-31.092
-31.4247
-31.6966
-31.839
-31.8629
-31.4406
-28.2776
-25.3628
-22.7525
-20.4498
-18.4107
-16.5893
-14.9683
-13.5352
-12.2274
-11.0619
-10.0084
-9.01457
-7.24273
-6.85011
-7.09925
-6.84881
-7.83707
-8.11976
-23.6361
-24.1965
-24.33
-21.8216
-23.157
-23.3932
-23.6633
-24.0717
-23.639
-0.194233
-0.44221
-0.868601
-1.34984
-1.82942
-2.32905
-2.84431
-3.40811
-3.91199
-4.53654
-5.19123
-24.2315
-24.7238
-24.6948
-5.67096
-6.69418
-21.273
-19.0048
-17.0114
-15.2616
-13.7641
-12.4412
-11.2939
-10.2829
-9.3238
-8.3819
-23.9118
-26.9782
-30.5033
-34.686
-34.4424
-33.9761
-33.4453
-32.8727
-32.3692
-31.9104
-31.4731
-31.0335
-30.5916
-30.2241
-30.6767
-29.0982
-28.5519
-28.3525
-34.3544
-25.6805
-25.0487
-26.2105
-26.8393
-27.5104
-6.1089
-6.55092
-5.72152
-6.92951
-7.29308
-7.55845
-24.1203
-23.9338
-24.8078
-24.33
-21.8216
-23.157
-23.3932
-23.6633
-24.0717
-23.639
-0.194233
-0.44221
-0.868601
-1.34984
-1.82942
-2.32905
-2.84431
-3.40811
-3.91199
-4.53654
-5.19123
-24.2315
-24.7238
-24.6948
-5.67096
-6.69418
-32.3692
-31.9104
-31.4731
-31.0335
-30.5916
-30.2241
-30.6767
-29.0982
-28.5519
-28.3525
-25.6805
-25.0487
-26.2105
-26.8393
-27.5104
-32.8727
-33.4453
-33.9761
-34.686
-34.4424
-30.5033
-34.3544
-26.9782
-23.9118
-21.273
-19.0048
-17.0114
-15.2616
-13.7641
-12.4412
-11.2939
-10.2829
-9.3238
-8.3819
-6.1089
-6.55092
-5.72152
-6.92951
-7.29308
-7.55845
-24.1203
-23.9338
-24.8078
-24.728
-22.1586
-23.673
-23.5791
-24.0862
-24.2395
-0.129447
-0.350339
-0.869852
-1.41428
-1.70858
-2.27779
-2.74439
-3.31649
-3.7992
-4.40476
-5.02124
-24.7883
-25.2703
-5.42942
-22.1205
-19.539
-17.3184
-15.4107
-13.8816
-12.5718
-11.4376
-10.4626
-9.53538
-8.59596
-7.74586
-25.1559
-28.8495
-33.2545
-38.2553
-37.6038
-36.6413
-35.7409
-34.8419
-34.0654
-33.4202
-32.8296
-32.3186
-31.7952
-31.366
-31.0828
-29.8716
-31.3025
-29.1278
-28.7552
-28.073
-38.1506
-25.8438
-26.2561
-26.7945
-27.3908
-5.33973
-5.80098
-6.15536
-6.5359
-6.80443
-6.85356
-24.8883
-24.5356
-25.0484
-24.728
-22.1586
-23.673
-23.5791
-24.0862
-24.2395
-0.129447
-0.350339
-0.869852
-1.41428
-1.70858
-2.27779
-2.74439
-3.31649
-3.7992
-4.40476
-5.02124
-24.7883
-25.2703
-5.42942
-34.0654
-33.4202
-32.8296
-32.3186
-31.7952
-31.366
-31.0828
-29.8716
-31.3025
-29.1278
-28.7552
-28.073
-25.8438
-26.2561
-26.7945
-27.3908
-34.8419
-35.7409
-36.6413
-38.2553
-37.6038
-33.2545
-28.8495
-38.1506
-25.1559
-22.1205
-19.539
-17.3184
-15.4107
-13.8816
-12.5718
-11.4376
-10.4626
-9.53538
-8.59596
-7.74586
-5.33973
-5.80098
-6.15536
-6.5359
-6.80443
-6.85356
-24.8883
-24.5356
-25.0484
-25.2035
-22.4443
-24.1057
-23.9816
-24.4373
-24.686
-0.0345561
-0.243546
-0.921799
-1.56812
-1.95175
-2.19632
-2.65097
-3.2017
-3.65919
-4.26571
-4.86361
-25.432
-22.9278
-20.1582
-17.328
-15.3097
-13.9347
-12.6297
-11.4872
-10.5129
-9.62904
-8.82728
-8.21615
-7.01972
-26.4489
-31.0655
-36.8611
-42.9512
-41.6954
-39.952
-38.3641
-37.0167
-35.8704
-35.022
-34.2784
-33.6387
-32.9956
-32.4438
-32.0338
-31.3566
-29.7228
-30.2386
-31.7885
-29.1265
-28.5879
-27.8986
-43.5934
-26.1672
-26.2054
-26.788
-27.3168
-4.72054
-5.12737
-5.47593
-5.7667
-5.77277
-6.41616
-6.36228
-25.2824
-25.0408
-25.3801
-25.2035
-22.4443
-24.1057
-23.9816
-24.4373
-24.686
-0.0345561
-0.243546
-0.921799
-1.56812
-1.95175
-2.19632
-2.65097
-3.2017
-3.65919
-4.26571
-4.86361
-25.432
-35.8704
-35.022
-34.2784
-33.6387
-32.9956
-32.4438
-32.0338
-31.3566
-29.7228
-30.2386
-31.7885
-29.1265
-28.5879
-27.8986
-26.1672
-26.2054
-26.788
-27.3168
-37.0167
-38.3641
-39.952
-42.9512
-41.6954
-36.8611
-31.0655
-26.4489
-43.5934
-22.9278
-20.1582
-17.328
-15.3097
-13.9347
-12.6297
-11.4872
-10.5129
-9.62904
-8.82728
-8.21615
-7.01972
-4.72054
-5.12737
-5.47593
-5.7667
-5.77277
-6.41616
-6.36228
-25.2824
-25.0408
-25.3801
-26.1134
-22.3581
-23.0838
-24.5995
-24.6436
-24.8539
-25.1539
0.0459342
-0.0188585
-0.406068
-1.18894
-1.45178
-2.12663
-2.5559
-3.08679
-3.53569
-4.11361
-23.4253
-20.4361
-18.6734
-15.2379
-14.1059
-12.588
-11.4331
-10.4649
-9.60802
-8.77909
-7.95584
-7.37877
-7.23168
-6.07833
-27.6457
-33.8125
-42.0644
-50.1043
-46.6254
-44.6392
-41.211
-39.441
-37.8421
-36.7019
-35.7836
-34.9889
-34.2153
-33.504
-33.033
-33.096
-31.6687
-29.8995
-30.1303
-30.5919
-31.5449
-31.8955
-28.3793
-28.7367
-27.8205
-53.5444
-25.3988
-26.7221
-26.6482
-27.2912
-4.52254
-4.88457
-5.25625
-5.88166
-5.73677
-5.07916
-6.23375
-25.5633
-26.1121
-26.1134
-22.3581
-23.0838
-24.5995
-24.6436
-24.8539
-25.1539
0.0459342
-0.0188585
-0.406068
-1.18894
-1.45178
-2.12663
-2.5559
-3.08679
-3.53569
-4.11361
-37.8421
-36.7019
-35.7836
-34.9889
-34.2153
-33.504
-33.033
-33.096
-31.6687
-29.8995
-30.1303
-30.5919
-31.5449
-31.8955
-28.3793
-28.7367
-27.8205
-25.3988
-26.7221
-26.6482
-27.2912
-39.441
-41.211
-44.6392
-50.1043
-46.6254
-42.0644
-33.8125
-27.6457
-23.4253
-53.5444
-20.4361
-18.6734
-15.2379
-14.1059
-12.588
-11.4331
-10.4649
-9.60802
-8.77909
-7.95584
-7.37877
-7.23168
-6.07833
-4.52254
-4.88457
-5.25625
-5.88166
-5.73677
-5.07916
-6.23375
-25.5633
-26.1121
-26.4002
-26.2588
-23.4672
-24.8098
-25.0455
-25.2553
-25.5637
0.0683591
-0.658104
-0.71683
-1.20454
-0.989201
-1.74727
-2.06473
-2.48323
-2.98669
-3.40836
-3.95631
-23.2889
-19.9795
-17.141
-16.2044
-13.779
-13.2099
-12.1675
-11.187
-10.316
-9.53485
-8.70536
-7.86771
-6.80795
-6.87768
-5.44179
-5.84253
-5.74677
-28.4943
-37.7194
-52.6992
-61.7447
-54.062
-48.4769
-46.1526
-41.9932
-40.0037
-38.4532
-37.236
-36.3903
-35.5144
-34.6018
-33.9485
-33.3637
-33.2279
-30.3956
-28.717
-30.7571
-30.6725
-33.4807
-32.4465
-32.3059
-28.2824
-28.651
-27.8249
-61.0996
-26.0344
-26.3007
-27.2983
-27.4169
-4.30826
-4.64274
-4.94161
-4.80021
-4.95669
-5.00466
-25.9782
-26.417
-26.4002
-26.2588
-23.4672
-24.8098
-25.0455
-25.2553
-25.5637
0.0683591
-0.658104
-0.71683
-1.20454
-0.989201
-1.74727
-2.06473
-2.48323
-2.98669
-3.40836
-3.95631
-40.0037
-38.4532
-37.236
-36.3903
-35.5144
-34.6018
-33.9485
-33.3637
-33.2279
-30.3956
-28.717
-30.7571
-30.6725
-33.4807
-32.4465
-32.3059
-28.2824
-28.651
-27.8249
-26.0344
-26.3007
-27.2983
-27.4169
-41.9932
-46.1526
-48.4769
-61.7447
-54.062
-52.6992
-37.7194
-28.4943
-23.2889
-19.9795
-61.0996
-17.141
-16.2044
-13.779
-13.2099
-12.1675
-11.187
-10.316
-9.53485
-8.70536
-7.86771
-6.80795
-6.87768
-5.44179
-5.84253
-5.74677
-4.30826
-4.64274
-4.94161
-4.80021
-4.95669
-5.00466
-25.9782
-26.417
-26.632
-23.825
-25.107
-25.4025
-25.6097
-25.9724
-0.08269
-0.0186012
-0.51279
-0.989413
-1.425
-1.59378
-2.01414
-2.39212
-2.89066
-3.23297
-3.76263
-21.4664
-19.0508
-17.0611
-15.8117
-13.1163
-12.4179
-11.6226
-10.8023
-10.0397
-9.35336
-8.61319
-7.8996
-7.21616
-7.02062
-5.07414
-4.87574
-4.76432
-5.76146
-5.72953
-5.18105
-24.7851
-36.6538
-59.8596
-61.1804
-63.5483
-55.853
-50.0398
-47.7011
-45.3711
-42.3644
-40.314
-38.7715
-37.4748
-37.2008
-35.6267
-35.0208
-34.3043
-33.1558
-34.5494
-29.3362
-29.6074
-30.7835
-29.3813
-31.2368
-31.2241
-33.2083
-33.0434
-32.561
-32.0154
-28.2892
-28.757
-27.8777
-75.363
-26.5164
-26.8827
-27.5198
-4.09655
-4.39955
-4.60366
-4.62085
-4.40545
-26.3604
-26.632
-23.825
-25.107
-25.4025
-25.6097
-25.9724
-0.08269
-0.0186012
-0.51279
-0.989413
-1.425
-1.59378
-2.01414
-2.39212
-2.89066
-3.23297
-3.76263
-42.3644
-40.314
-38.7715
-37.4748
-37.2008
-35.6267
-35.0208
-34.3043
-33.1558
-34.5494
-29.3362
-29.6074
-30.7835
-29.3813
-31.2368
-31.2241
-33.2083
-33.0434
-32.561
-32.0154
-28.2892
-28.757
-27.8777
-26.5164
-26.8827
-27.5198
-45.3711
-47.7011
-50.0398
-55.853
-61.1804
-63.5483
-59.8596
-36.6538
-24.7851
-21.4664
-19.0508
-17.0611
-75.363
-15.8117
-13.1163
-12.4179
-11.6226
-10.8023
-10.0397
-9.35336
-8.61319
-7.8996
-7.21616
-7.02062
-5.07414
-4.87574
-4.76432
-5.76146
-5.72953
-5.18105
-4.09655
-4.39955
-4.60366
-4.62085
-4.40545
-26.3604
-26.9831
-24.1798
-25.4624
-25.7411
-25.9166
-26.4174
-0.053272
0.35226
0.454833
-0.732563
-0.843516
-1.52496
-1.88524
-2.25472
-2.73477