/*--------------------------------*- C++ -*----------------------------------*\
| =========                 |                                                 |
| \\      /  F ield         | OpenFOAM: The Open Source CFD Toolbox           |
|  \\    /   O peration     | Version:  2.4.x                                 |
|   \\  /    A nd           | Web:      www.OpenFOAM.org                      |
|    \\/     M anipulation  |                                                 |
\*---------------------------------------------------------------------------*/
FoamFile
{
    version     2.0;
    format      ascii;
    class       volScalarField;
    location    "10";
    object      gradTz;
}
// * * * * * * * * * * * * * * * * * * * * * * * * * * * * * * * * * * * * * //

dimensions      [0 -1 0 1 0 0 0];

internalField   nonuniform List<scalar> 
6768
(
3999.96
-3999.96
3999.82
3999.82
-3999.82
-3999.82
3999.74
3999.18
3999.6
-3999.74
-3999.18
-3999.6
3999.2
3998.13
3998.18
3999.38
-3999.2
-3998.13
-3998.18
-3999.38
3999.19
3997.08
3995.41
3997.37
3999.29
-3999.19
-3997.08
-3995.41
-3997.37
-3999.29
3998.98
3996.95
3993.08
3994.42
3991.16
3997.36
3999.09
-3998.98
-3996.95
-3993.08
-3994.42
-3991.16
-3997.36
-3999.09
3998.6
3995.36
3990.04
3987.38
3995.91
3991.43
3986.36
3998.68
-3998.6
-3995.36
-3990.04
-3987.38
-3995.91
-3991.43
-3986.36
-3998.68
3998.32
3994.12
3987.66
3983.58
3980.71
3994.54
3988.61
3980.97
3998.39
-3998.32
-3994.12
-3987.66
-3983.58
-3980.71
-3994.54
-3988.61
-3980.97
-3998.39
3998.08
3993.08
3985.6
3980.56
3976.04
3971.69
3993.5
3987.29
3983.23
3974.11
3998.09
-3998.08
-3993.08
-3985.6
-3980.56
-3976.04
-3971.69
-3993.5
-3987.29
-3983.23
-3974.11
-3998.09
3997.86
3992.14
3983.6
3977.45
3973.67
3967.43
3963.72
3960.21
3992.07
3990.09
3979.43
3968.4
3997.66
-3997.86
-3992.14
-3983.6
-3977.45
-3973.67
-3967.43
-3963.72
-3960.21
-3992.07
-3990.09
-3979.43
-3968.4
-3997.66
3997.71
3991.32
3981.86
3974.02
3968.37
3958.22
3956.43
3951.91
3949.22
3997.19
3988.29
3975.96
3963.12
-3997.71
-3991.32
-3981.86
-3974.02
-3968.37
-3958.22
-3956.43
-3951.91
-3949.22
-3997.19
-3988.29
-3975.96
-3963.12
3997.83
3990.93
3981.18
3971.07
3963.44
3952.43
3947.53
3949.49
3943.21
3939.4
3937.93
3996.72
3986.69
3972.74
3958.13
-3997.83
-3990.93
-3981.18
-3971.07
-3963.44
-3952.43
-3947.53
-3949.49
-3943.21
-3939.4
-3937.93
-3996.72
-3986.69
-3972.74
-3958.13
3997.8
3992.19
3989.47
3977.58
3967.91
3959.02
3946.13
3940.19
3942.98
3934.6
3929.13
3926.57
3927.52
3996.41
3985.52
3969.98
3952.39
-3997.8
-3992.19
-3989.47
-3977.58
-3967.91
-3959.02
-3946.13
-3940.19
-3942.98
-3934.6
-3929.13
-3926.57
-3927.52
-3996.41
-3985.52
-3969.98
-3952.39
3996.94
3988.11
3975.57
3964.36
3954.39
3939.93
3932.15
3938.67
3926.26
3918.95
3914.51
3913.87
3917.33
3996.36
3986.61
3980.4
3960.94
3943.75
-3996.94
-3988.11
-3975.57
-3964.36
-3954.39
-3939.93
-3932.15
-3938.67
-3926.26
-3918.95
-3914.51
-3913.87
-3917.33
-3996.36
-3986.61
-3980.4
-3960.94
-3943.75
3996.87
3987.81
3975.39
3961.54
3949.86
3934.01
3924.36
3929.29
3914.87
3908.48
3902.35
3899.09
3901.12
3907.85
3995.69
3993.84
3973.82
3950.03
3933.79
-3996.87
-3987.81
-3975.39
-3961.54
-3949.86
-3934.01
-3924.36
-3929.29
-3914.87
-3908.48
-3902.35
-3899.09
-3901.12
-3907.85
-3995.69
-3993.84
-3973.82
-3950.03
-3933.79
3997.11
3989.78
3986.67
3971.94
3958.61
3945.52
3928.26
3917.01
3921.08
3906.25
3898
3890.52
3884.66
3881.15
3890.37
3899.07
3991.73
3964.16
3932.21
3926.36
-3997.11
-3989.78
-3986.67
-3971.94
-3958.61
-3945.52
-3928.26
-3917.01
-3921.08
-3906.25
-3898
-3890.52
-3884.66
-3881.15
-3890.37
-3899.07
-3991.73
-3964.16
-3932.21
-3926.36
3996.96
3996.44
3985.93
3971.56
3955.5
3941.22
3922.61
3909.85
3914.92
3899.4
3888.83
3879.43
3871.58
3865.26
3873.32
3855.74
3880.32
3890.33
3989.42
3951.37
3781.11
3923.77
3923.1
-3996.96
-3996.44
-3985.93
-3971.56
-3955.5
-3941.22
-3922.61
-3909.85
-3914.92
-3899.4
-3888.83
-3879.43
-3871.58
-3865.26
-3873.32
-3855.74
-3880.32
-3890.33
-3989.42
-3951.37
-3781.11
-3923.77
-3923.1
3996.62
3988.07
3984.4
3967.46
3952.54
3937.02
3917.3
3902.78
3910.95
3894.03
3880.83
3869.16
3859.23
3851.36
3845.61
3860.25
3839.03
3827.49
3869.52
3881.52
3990.87
3991.15
4595.27
3943.82
3934.7
3924.22
-3996.62
-3988.07
-3984.4
-3967.46
-3952.54
-3937.02
-3917.3
-3902.78
-3910.95
-3894.03
-3880.83
-3869.16
-3859.23
-3851.36
-3845.61
-3860.25
-3839.03
-3827.49
-3869.52
-3881.52
-3990.87
-3991.15
-4595.27
-3943.82
-3934.7
-3924.22
3996.43
3995.72
3982.68
3965.09
3949.89
3933.65
3913.44
3895.99
3908.85
3889.99
3873.92
3859.74
3847.43
3837.2
3829.55
3847.46
3824.26
3817.74
3806.42
3799.77
3858.69
3872.45
3988.42
3961.3
3942.64
3926.28
-3996.43
-3995.72
-3982.68
-3965.09
-3949.89
-3933.65
-3913.44
-3895.99
-3908.85
-3889.99
-3873.92
-3859.74
-3847.43
-3837.2
-3829.55
-3847.46
-3824.26
-3817.74
-3806.42
-3799.77
-3858.69
-3872.45
-3988.42
-3961.3
-3942.64
-3926.28
3995.36
3981.72
3963.45
3947.02
3933.85
3926.89
3904.76
3888.35
3908.01
3887.65
3868.25
3851.27
3836.48
3823.79
3813.56
3834.42
3808.34
3799.16
3788.39
3780.64
3771.49
3847.57
3862.91
3990.62
3968.72
3948.08
3928.79
-3995.36
-3981.72
-3963.45
-3947.02
-3933.85
-3926.89
-3904.76
-3888.35
-3908.01
-3887.65
-3868.25
-3851.27
-3836.48
-3823.79
-3813.56
-3834.42
-3808.34
-3799.16
-3788.39
-3780.64
-3771.49
-3847.57
-3862.91
-3990.62
-3968.72
-3948.08
-3928.79
3995.07
3981.42
3963.21
3944.27
3923.55
3900.24
3880.1
3908.49
3889.98
3865
3843.71
3826.28
3811.24
3798.45
3821.17
3793.14
3780.26
3771.38
3761.58
3756.31
3749.98
3736.79
3836.28
3853.18
3992.26
3973.5
3954.09
3930.21
-3995.07
-3981.42
-3963.21
-3944.27
-3923.55
-3900.24
-3880.1
-3908.49
-3889.98
-3865
-3843.71
-3826.28
-3811.24
-3798.45
-3821.17
-3793.14
-3780.26
-3771.38
-3761.58
-3756.31
-3749.98
-3736.79
-3836.28
-3853.18
-3992.26
-3973.5
-3954.09
-3930.21
3995.42
3981.96
3966.19
3945.19
3924.41
3916.04
3890.8
3871.8
3908.31
3883.7
3853.98
3834.97
3816.13
3799.21
3784.2
3808.33
3779.02
3763.52
3755.42
3742.07
3732.81
3732.18
3716.37
3699.74
3825.16
3843.36
3993.87
3979.92
3976.08
3952.77
3930.41
-3995.42
-3981.96
-3966.19
-3945.19
-3924.41
-3916.04
-3890.8
-3871.8
-3908.31
-3883.7
-3853.98
-3834.97
-3816.13
-3799.21
-3784.2
-3808.33
-3779.02
-3763.52
-3755.42
-3742.07
-3732.81
-3732.18
-3716.37
-3699.74
-3825.16
-3843.36
-3993.87
-3979.92
-3976.08
-3952.77
-3930.41
3995.25
3981.31
3960.91
3939.61
3936.08
3913.2
3883.4
3862.63
3909.3
3899.76
3872.21
3843.36
3824.09
3805.22
3787.18
3770.53
3796.06
3765.9
3748.44
3740.52
3724.96
3709.43
3716.62
3699.4
3682.31
3657.48
3669.25
3814.3
3833.66
3994.25
3993.88
3976.17
3954.35
3927.11
-3995.25
-3981.31
-3960.91
-3939.61
-3936.08
-3913.2
-3883.4
-3862.63
-3909.3
-3899.76
-3872.21
-3843.36
-3824.09
-3805.22
-3787.18
-3770.53
-3796.06
-3765.9
-3748.44
-3740.52
-3724.96
-3709.43
-3716.62
-3699.4
-3682.31
-3657.48
-3669.25
-3814.3
-3833.66
-3994.25
-3993.88
-3976.17
-3954.35
-3927.11
3994.92
3979.47
3958.14
3957.43
3938.79
3934.03
3904.69
3875.57
3854.15
3920.66
3892.31
3863.65
3834.03
3813.33
3793.65
3774.84
3757.08
3784.38
3753.61
3734.77
3725.97
3709.55
3693.18
3702.78
3683.55
3665.99
3650.76
3618.91
3623.63
3635.01
3664.17
3803.9
3824.48
3994.13
3980.3
3974.72
3948.31
-3994.92
-3979.47
-3958.14
-3957.43
-3938.79
-3934.03
-3904.69
-3875.57
-3854.15
-3920.66
-3892.31
-3863.65
-3834.03
-3813.33
-3793.65
-3774.84
-3757.08
-3784.38
-3753.61
-3734.77
-3725.97
-3709.55
-3693.18
-3702.78
-3683.55
-3665.99
-3650.76
-3618.91
-3623.63
-3635.01
-3664.17
-3803.9
-3824.48
-3994.13
-3980.3
-3974.72
-3948.31
3994.58
3978.57
3978.28
3957.27
3959.39
3952.21
3925.48
3897.6
3868.89
3846.14
3944.17
3915.44
3886.13
3856.26
3825.53
3803.18
3782.17
3762.3
3743.54
3773.24
3741.76
3722.25
3711.27
3693.94
3678.12
3690.85
3669.45
3648.44
3631.32
3586.89
3596.81
3582.94
3598.98
3584.87
3645.36
3611.56
3793.91
3815.78
3994.11
3993.04
3972.16
-3994.58
-3978.57
-3978.28
-3957.27
-3959.39
-3952.21
-3925.48
-3897.6
-3868.89
-3846.14
-3944.17
-3915.44
-3886.13
-3856.26
-3825.53
-3803.18
-3782.17
-3762.3
-3743.54
-3773.24
-3741.76
-3722.25
-3711.27
-3693.94
-3678.12
-3690.85
-3669.45
-3648.44
-3631.32
-3596.81
-3582.94
-3586.89
-3598.98
-3584.87
-3645.36
-3611.56
-3793.91
-3815.78
-3994.11
-3993.04
-3972.16
3994.42
3994.38
3978.55
3977.26
3974.63
3948.02
3920.74
3892.82
3863.72
3839.01
3970.46
3941.11
3911.21
3880.59
3849.45
3817.67
3793.71
3771.13
3749.91
3729.96
3762.35
3729.9
3709.68
3696.55
3677.89
3660.7
3677.08
3661.89
3632.06
3612.23
3552
3552.77
3574.03
3559.27
3574.53
3560.65
3626.15
3589.93
3784.32
3807.77
3992.51
-3994.42
-3994.38
-3978.55
-3977.26
-3974.63
-3948.02
-3920.74
-3892.82
-3863.72
-3839.01
-3970.46
-3941.11
-3911.21
-3880.59
-3849.45
-3817.67
-3793.71
-3771.13
-3749.91
-3729.96
-3762.35
-3729.9
-3709.68
-3696.55
-3677.89
-3660.7
-3677.08
-3661.89
-3632.06
-3612.23
-3574.03
-3559.27
-3552
-3552.77
-3574.53
-3560.65
-3626.15
-3589.93
-3784.32
-3807.77
-3992.51
3994.26
3993.61
3993.38
3973.06
3945.87
3918.42
3890.31
3860.03
3832.82
3992.16
3969.31
3939.07
3907.54
3874.91
3842.83
3810.28
3784.92
3760.72
3737.92
3716.55
3751.78
3718.19
3696.46
3682.06
3661.96
3643.24
3661.64
3642.92
3608.01
3591.39
3515.39
3520.3
3521.22
3551.42
3533.87
3551.34
3534.69
3607.09
3569.1
3775.26
3800.26
-3994.26
-3993.61
-3993.38
-3973.06
-3945.87
-3918.42
-3890.31
-3860.03
-3832.82
-3992.16
-3969.31
-3939.07
-3907.54
-3874.91
-3842.83
-3810.28
-3784.92
-3760.72
-3737.92
-3716.55
-3751.78
-3718.19
-3696.46
-3682.06
-3661.96
-3643.24
-3661.64
-3642.92
-3608.01
-3591.39
-3551.42
-3533.87
-3520.3
-3515.39
-3521.22
-3551.34
-3534.69
-3607.09
-3569.1
-3775.26
-3800.26
3992.96
3972.42
3945.48
3918.75
3891.4
3855.11
3826.75
3991.91
3969.34
3939.04
3901.88
3868.75
3836.46
3803.28
3776.7
3751.01
3726.57
3703.58
3741.68
3707.01
3683.39
3668.05
3646.34
3626
3647.38
3625.8
3589.07
3569.79
3476.16
3475.85
3490.62
3491.45
3529.98
3510.37
3510.84
3529.15
3588.38
3548.78
3766.57
3792.71
-3992.96
-3972.42
-3945.48
-3918.75
-3891.4
-3855.11
-3826.75
-3991.91
-3969.34
-3939.04
-3901.88
-3868.75
-3836.46
-3803.28
-3776.7
-3751.01
-3726.57
-3703.58
-3741.68
-3707.01
-3683.39
-3668.05
-3646.34
-3626
-3647.38
-3625.8
-3589.07
-3569.79
-3529.98
-3510.37
-3490.62
-3475.85
-3476.16
-3491.45
-3529.15
-3510.84
-3588.38
-3548.78
-3766.57
-3792.71
3992.89
3972.74
3947.37
3924.47
3916.51
3882.86
3848.21
3820.14
3992.83
3973.95
3964.86
3928.54
3894.52
3863.12
3830.36
3796.58
3768.93
3741.9
3715.89
3691.22
3731.91
3696.19
3671.15
3654.6
3631.19
3609.14
3634.11
3610.39
3572.37
3550.54
3438.71
3422.48
3439.33
3467.92
3469.38
3510.26
3488.43
3487.93
3506.99
3570.15
3528.94
3757.95
3785.15
-3992.89
-3972.74
-3947.37
-3924.47
-3916.51
-3882.86
-3848.21
-3820.14
-3992.83
-3973.95
-3964.86
-3928.54
-3894.52
-3863.12
-3830.36
-3796.58
-3768.93
-3741.9
-3715.89
-3691.22
-3731.91
-3696.19
-3671.15
-3654.6
-3631.19
-3609.14
-3634.11
-3610.39
-3572.37
-3550.54
-3510.26
-3488.43
-3467.92
-3439.33
-3422.48
-3438.71
-3469.38
-3506.99
-3487.93
-3570.15
-3528.94
-3757.95
-3785.15
3993.07
3974.03
3950.09
3943.46
3911.33
3876.79
3841.94
3813.2
3992.23
3989.78
3958.71
3920.23
3889.56
3857.33
3824.48
3790.28
3761.51
3733.26
3705.79
3679.49
3722.33
3685.72
3659.34
3641.85
3616.69
3592.82
3621.35
3596.03
3557.15
3533.19
3432.79
3395.88
3382.51
3384.94
3358.81
3399.83
3429.26
3444.23
3446.79
3492.79
3467.49
3462.42
3485.08
3552.59
3510.01
3749.57
3777.68
-3993.07
-3974.03
-3950.09
-3943.46
-3911.33
-3876.79
-3841.94
-3813.2
-3992.23
-3989.78
-3958.71
-3920.23
-3889.56
-3857.33
-3824.48
-3790.28
-3761.51
-3733.26
-3705.79
-3679.49
-3722.33
-3685.72
-3659.34
-3641.85
-3616.69
-3592.82
-3621.35
-3596.03
-3557.15
-3533.19
-3492.79
-3467.49
-3444.23
-3429.26
-3384.94
-3399.83
-3358.81
-3382.51
-3395.88
-3432.79
-3446.79
-3485.08
-3462.42
-3552.59
-3510.01
-3749.57
-3777.68
3993.88
3978.87
3972.98
3971.74
3943.67
3907.01
3871.73
3836.44
3806.59
3988.2
3952.92
3912.32
3899.83
3880.87
3851.98
3819.44
3784.61
3754.46
3725.01
3696.24
3668.42
3713.16
3675.71
3647.99
3629.78
3602.95
3577.29
3609.11
3582.41
3542.79
3517.86
3410.93
3372.65
3348.59
3326.55
3330.62
3357.2
3301.6
3392.44
3419.92
3411.37
3450.34
3479.17
3438.23
3464.14
3536.29
3493.32
3741.44
3770.48
-3993.88
-3978.87
-3972.98
-3971.74
-3943.67
-3907.01
-3871.73
-3836.44
-3806.59
-3988.2
-3952.92
-3912.32
-3899.83
-3880.87
-3851.98
-3819.44
-3784.61
-3754.46
-3725.01
-3696.24
-3668.42
-3713.16
-3675.71
-3647.99
-3629.78
-3602.95
-3577.29
-3609.11
-3582.41
-3542.79
-3517.86
-3479.17
-3450.34
-3419.92
-3392.44
-3330.62
-3357.2
-3301.6
-3326.55
-3348.59
-3372.65
-3410.93
-3411.37
-3464.14
-3438.23
-3536.29
-3493.32
-3741.44
-3770.48
3993.58
3992.93
3993.24
3976.34
3969.55
3936.63
3902.19
3867.22
3831.52
3800.48
3987.43
3946.56
3773.53
3931.94
3906.75
3880.21
3849.51
3815.76
3779.67
3747.84
3717.04
3687.05
3657.87
3704.25
3665.9
3637.07
3618.34
3590.05
3562.89
3597.19
3569.21
3528.59
3503.24
3358.58
3324.6
3297.01
3271.22
3275.85
3305.87
3337.94
3245.22
3370.05
3404
3393.81
3444.4
3464.42
3412.81
3446.79
3521.93
3480.91
3733.51
3763.69
-3993.58
-3992.93
-3993.24
-3976.34
-3969.55
-3936.63
-3902.19
-3867.22
-3831.52
-3800.48
-3987.43
-3946.56
-3773.53
-3931.94
-3906.75
-3880.21
-3849.51
-3815.76
-3779.67
-3747.84
-3717.04
-3687.05
-3657.87
-3704.25
-3665.9
-3637.07
-3618.34
-3590.05
-3562.89
-3597.19
-3569.21
-3528.59
-3503.24
-3464.42
-3444.4
-3404
-3370.05
-3337.94
-3275.85
-3305.87
-3245.22
-3271.22
-3297.01
-3324.6
-3358.58
-3393.81
-3412.81
-3446.79
-3521.93
-3480.91
-3733.51
-3763.69
3992.98
3991.76
3966.88
3933.31
3898.86
3863.55
3827.3
3794.96
3988.3
3987.39
4587.92
3984.92
3947.19
3913.44
3882.14
3848.82
3813
3775.27
3741.71
3709.45
3678.19
3647.79
3695.45
3656.22
3626.3
3607.3
3577.7
3549.41
3585.44
3556.21
3514.27
3487.35
3306.85
3351.78
3272.12
3242.39
3214.59
3219.42
3251.38
3283.88
3317.24
3187.43
3352.57
3392.39
3427.81
3443.94
3390.37
3443.19
3508.42
3468.05
3725.85
3757.32
-3992.98
-3991.76
-3966.88
-3933.31
-3898.86
-3863.55
-3827.3
-3794.96
-3988.3
-3987.39
-4587.92
-3984.92
-3947.19
-3913.44
-3882.14
-3848.82
-3813
-3775.27
-3741.71
-3709.45
-3678.19
-3647.79
-3695.45
-3656.22
-3626.3
-3607.3
-3577.7
-3549.41
-3585.44
-3556.21
-3514.27
-3487.35
-3443.94
-3427.81
-3392.39
-3352.57
-3317.24
-3283.88
-3219.42
-3251.38
-3187.43
-3214.59
-3242.39
-3272.12
-3306.85
-3351.78
-3390.37
-3443.19
-3508.42
-3468.05
-3725.85
-3757.32
3991.25
3965.63
3931.43
3896.45
3860.56
3823.49
3789.92
3986.93
3954.26
3919.4
3885.48
3848.68
3810.61
3771.34
3736.06
3702.28
3669.7
3638.04
3686.92
3646.72
3615.67
3596.61
3565.61
3536.12
3573.81
3543.37
3500.34
3471.21
3249.21
3286.78
3323.86
3215.62
3184.92
3155.75
3160.74
3194.23
3227.91
3262.32
3298.54
3127.35
3338.39
3426.54
3386.2
3402.47
3429.52
3352.35
3493.71
3449.71
3718.55
3751.31
-3991.25
-3965.63
-3931.43
-3896.45
-3860.56
-3823.49
-3789.92
-3986.93
-3954.26
-3919.4
-3885.48
-3848.68
-3810.61
-3771.34
-3736.06
-3702.28
-3669.7
-3638.04
-3686.92
-3646.72
-3615.67
-3596.61
-3565.61
-3536.12
-3573.81
-3543.37
-3500.34
-3471.21
-3426.54
-3386.2
-3338.39
-3298.54
-3262.32
-3227.91
-3160.74
-3194.23
-3127.35
-3155.75
-3184.92
-3215.62
-3249.21
-3286.78
-3323.86
-3402.47
-3352.35
-3429.52
-3493.71
-3449.71
-3718.55
-3751.31
3991.06
3965.06
3930.33
3894.76
3858.07
3819.86
3785.09
3988.67
3959.97
3928.22
3887.73
3848.75
3808.18
3768.4
3731.43
3695.76
3661.65
3628.67
3678.64
3637.48
3605.2
3586.3
3553.81
3522.64
3562.28
3530.72
3486.94
3456.78
3189.53
3224.82
3260.73
3294.88
3156.25
3124.69
3094.23
3099.45
3134.45
3169.49
3205
3241.66
3280.37
3064.47
3321.43
3369.15
3413.75
3430.64
3381.19
3328.93
3477.97
3711.55
3745.47
-3991.06
-3965.06
-3930.33
-3894.76
-3858.07
-3819.86
-3785.09
-3988.67
-3959.97
-3928.22
-3887.73
-3848.75
-3808.18
-3768.4
-3731.43
-3695.76
-3661.65
-3628.67
-3678.64
-3637.48
-3605.2
-3586.3
-3553.81
-3522.64
-3562.28
-3530.72
-3486.94
-3456.78
-3413.75
-3369.15
-3280.37
-3321.43
-3241.66
-3205
-3169.49
-3099.45
-3134.45
-3064.47
-3094.23
-3124.69
-3156.25
-3189.53
-3224.82
-3260.73
-3294.88
-3430.64
-3381.19
-3328.93
-3477.97
-3711.55
-3745.47
3990.98
3964.73
3929.68
3893.63
3855.7
3816.12
3780.33
3990.68
3969.46
3963.62
3926.74
3891.19
3846.59
3805.56
3767.12
3729.3
3690.92
3654.41
3619.75
3670.66
3628.51
3594.93
3576.35
3542.44
3509.46
3550.89
3518.02
3472.97
3443.82
3128.06
3163.05
3198.99
3235.45
3273.49
3094.31
3061.61
3029.72
3035.11
3071.71
3108.25
3145.02
3182.38
3220.64
3259.5
2998.41
3353.58
3377.43
3296.89
3405.01
3463.33
3415.74
3367.01
3315.75
3704.74
3739.7
-3990.98
-3964.73
-3929.68
-3893.63
-3855.7
-3816.12
-3780.33
-3990.68
-3969.46
-3963.62
-3926.74
-3891.19
-3846.59
-3805.56
-3767.12
-3729.3
-3690.92
-3654.41
-3619.75
-3670.66
-3628.51
-3594.93
-3576.35
-3542.44
-3509.46
-3550.89
-3518.02
-3472.97
-3443.82
-3405.01
-3377.43
-3220.64
-3259.5
-3353.58
-3296.89
-3182.38
-3145.02
-3108.25
-3035.11
-3071.71
-2998.41
-3029.72
-3061.61
-3094.31
-3128.06
-3163.05
-3198.99
-3235.45
-3273.49
-3463.33
-3415.74
-3367.01
-3315.75
-3704.74
-3739.7
3990.93
3964.79
3930.19
3893.23
3852.91
3812.08
3775.5
3991.47
3990.64
3964.08
3933.08
3923.87
3883.18
3842.21
3802.24
3763.02
3733.46
3690.06
3648.58
3611.4
3662.89
3619.93
3585.02
3566.65
3531.39
3497.07
3540.24
3505.49
3458.55
3426.99
3064.46
3100.08
3136.57
3174.19
3213.84
3257.11
3029.62
2995.47
2961.94
2967.44
3005.82
3044.07
3082.38
3120.9
3159.73
3198.89
3238.1
2928.91
3394.57
3334.25
3408.15
3277.51
3450.74
3405.05
3364.54
3305.51
3347.37
3698.03
3733.96
-3990.93
-3964.79
-3930.19
-3893.23
-3852.91
-3812.08
-3775.5
-3991.47
-3990.64
-3964.08
-3933.08
-3923.87
-3883.18
-3842.21
-3802.24
-3763.02
-3733.46
-3690.06
-3648.58
-3611.4
-3662.89
-3619.93
-3585.02
-3566.65
-3531.39
-3497.07
-3540.24
-3505.49
-3458.55
-3426.99
-3408.15
-3159.73
-3198.89
-3238.1
-3394.57
-3334.25
-3277.51
-3120.9
-3082.38
-3044.07
-2967.44
-3005.82
-2928.91
-2961.94
-2995.47
-3029.62
-3064.46
-3100.08
-3136.57
-3174.19
-3213.84
-3257.11
-3450.74
-3405.05
-3364.54
-3305.51
-3347.37
-3698.03
-3733.96
3991.14
3966.33
3934.04
3890.74
3849.3
3808.23
3770.71
3990.58
3963.21
3960.32
3919.81
3879.09
3838.54
3797.95
3756.1
3720.81
3677.01
3641.04
3603.1
3655.43
3611.95
3575.92
3556.99
3520.47
3485.07
3531.21
3494.33
3446.86
2998.24
3035.06
3072.49
3111
3151.35
3194.41
3240.28
2961.88
2926.01
2890.62
2896.16
2936.53
2976.72
3016.87
3056.98
3097.15
3137.59
3178.69
3221.23
2855.66
3422.29
3445.02
3368.42
3313.76
3263.44
3438.09
3391.66
3349.31
3286.4
3369.84
3691.61
3728.65
-3991.14
-3966.33
-3934.04
-3890.74
-3849.3
-3808.23
-3770.71
-3990.58
-3963.21
-3960.32
-3919.81
-3879.09
-3838.54
-3797.95
-3756.1
-3720.81
-3677.01
-3641.04
-3603.1
-3655.43
-3611.95
-3575.92
-3556.99
-3520.47
-3485.07
-3531.21
-3494.33
-3446.86
-3097.15
-3137.59
-3178.69
-3221.23
-3422.29
-3445.02
-3368.42
-3313.76
-3263.44
-3056.98
-3016.87
-2976.72
-2896.16
-2936.53
-2855.66
-2890.62
-2926.01
-2961.88
-2998.24
-3035.06
-3072.49
-3111
-3151.35
-3194.41
-3240.28
-3438.09
-3391.66
-3349.31
-3286.4
-3369.84
-3691.61
-3728.65
3992.31
3972.7
3964.97
3926.53
3886.3
3845.91
3805.49
3766.81
3990.13
3989.58
3958.71
3917.59
3876.44
3835.31
3793.61
3750.83
3712.8
3668.71
3631.51
3594.24
3648.36
3604.57
3568.06
3547.66
3509.81
3472.79
3524.01
3486.45
2928.96
2967.35
3006.09
3045.62
3086.73
3129.99
3175.7
3222.68
2890.81
2852.93
2815.4
2820.98
2863.62
2906.07
2948.31
2990.39
3032.33
3074.54
3117.85
3164.43
3220.16
2778.24
3454.13
3401.17
3478.08
3346.99
3289.52
3423.31
3398.54
3408.3
3333.14
3270.02
3685.74
3724.77
-3992.31
-3972.7
-3964.97
-3926.53
-3886.3
-3845.91
-3805.49
-3766.81
-3990.13
-3989.58
-3958.71
-3917.59
-3876.44
-3835.31
-3793.61
-3750.83
-3712.8
-3668.71
-3631.51
-3594.24
-3648.36
-3604.57
-3568.06
-3547.66
-3509.81
-3472.79
-3524.01
-3486.45
-3032.33
-3074.54
-3117.85
-3164.43
-3220.16
-3454.13
-3401.17
-3478.08
-3346.99
-3289.52
-2990.39
-2948.31
-2906.07
-2820.98
-2863.62
-2778.24
-2815.4
-2852.93
-2890.81
-2928.96
-2967.35
-3006.09
-3045.62
-3086.73
-3129.99
-3175.7
-3222.68
-3423.31
-3398.54
-3408.3
-3333.14
-3270.02
-3685.74
-3724.77
3991.87
3990.52
3961.8
3922.89
3883.33
3843.53
3804.39
3765.12
3989.24
3957.79
3916.17
3874.46
3832.65
3790.26
3746.75
3706.97
3662.18
3623.5
3585.53
3641.38
3596.3
3561.51
3539.33
3500.49
3460.86
3522.91
2856.36
2896.54
2936.86
2977.75
3019.91
3063.87
3110.01
3157.99
3206.86
2816.13
2775.89
2735.85
2741.45
2786.68
2831.74
2876.49
2920.9
2964.93
3008.88
3053.55
3100.46
3151.57
3204.35
3268.2
2696.18
3488.24
3503.73
3436.98
3383.79
3328.34
3432.23
3451.75
3376.71
3451.71
3316.94
3255.83
3680.66
3724.34
-3991.87
-3990.52
-3961.8
-3922.89
-3883.33
-3843.53
-3804.39
-3765.12
-3989.24
-3957.79
-3916.17
-3874.46
-3832.65
-3790.26
-3746.75
-3706.97
-3662.18
-3623.5
-3585.53
-3641.38
-3596.3
-3561.51
-3539.33
-3500.49
-3460.86
-3522.91
-2964.93
-3008.88
-3053.55
-3100.46
-3151.57
-3204.35
-3268.2
-3488.24
-3503.73
-3436.98
-3383.79
-3328.34
-2920.9
-2876.49
-2831.74
-2741.45
-2786.68
-2696.18
-2735.85
-2775.89
-2816.13
-2856.36
-2896.54
-2936.86
-2977.75
-3019.91
-3063.87
-3110.01
-3157.99
-3206.86
-3432.23
-3451.75
-3376.71
-3451.71
-3316.94
-3255.83
-3680.66
-3724.34
3989.91
3960.38
3921.25
3881.61
3841.15
3800.43
3769.59
3989.06
3957.27
3915.23
3873.06
3830.85
3787.78
3743.27
3702.07
3656.33
3616.32
3577.44
3633.51
3586.34
3551.33
3530.95
3493.57
2780.39
2822.52
2864.55
2907.18
2950.86
2995.98
3042.97
3092.04
3142.45
3193.3
2737.62
2694.42
2651.33
2657.01
2705.28
2753.44
2801.17
2848.35
2894.8
2940.61
2986.44
3033.35
3082.14
3131.3
3175.72
3239.23
3264.45
3314.85
2608.68
3526.57
3538.06
3475.64
3423.31
3369.52
3471.43
3418.36
3483.86
3362.79
3304.65
3244.66
3673.16
3756.56
3710.94
-3989.91
-3960.38
-3921.25
-3881.61
-3841.15
-3800.43
-3769.59
-3989.06
-3957.27
-3915.23
-3873.06
-3830.85
-3787.78
-3743.27
-3702.07
-3656.33
-3616.32
-3577.44
-3633.51
-3586.34
-3551.33
-3530.95
-3493.57
-2894.8
-2940.61
-2986.44
-3033.35
-3082.14
-3131.3
-3175.72
-3239.23
-3264.45
-3314.85
-3526.57
-3538.06
-3475.64
-3423.31
-3369.52
-2848.35
-2801.17
-2753.44
-2657.01
-2705.28
-2651.33
-2608.68
-2694.42
-2737.62
-2780.39
-2822.52
-2864.55
-2907.18
-2950.86
-2995.98
-3042.97
-3092.04
-3142.45
-3193.3
-3471.43
-3418.36
-3483.86
-3362.79
-3304.65
-3244.66
-3673.16
-3756.56
-3710.94
3989.71
3960.23
3921.56
3880.97
3837.54
3793.46
3988.97
3956.95
3914.68
3872.52
3830.06
3785.8
3739.96
3697.58
3650.83
3609.54
3569.51
3624.47
3576.06
3521.65
2700.91
2745.38
2788.82
2833.24
2879.25
2926.19
2974.55
3024.74
3076.43
3128.9
3181.96
2654.75
2607.75
2560.77
2566.96
2618.8
2670.42
2721.78
2772.45
2821.94
2870.03
2917.25
2964.56
3012.68
3061.2
3108.37
3220.23
3154.34
3283.19
3300.23
3356.4
2514.53
3567.21
3516.85
3464.7
3411.2
3512.4
3461.23
3408.1
3353.1
3296.41
3237.4
3663.63
3748.41
3702.97
-3989.71
-3960.23
-3921.56
-3880.97
-3837.54
-3793.46
-3988.97
-3956.95
-3914.68
-3872.52
-3830.06
-3785.8
-3739.96
-3697.58
-3650.83
-3609.54
-3569.51
-3624.47
-3576.06
-3521.65
-2821.94
-2870.03
-2917.25
-2964.56
-3012.68
-3061.2
-3108.37
-3220.23
-3154.34
-3283.19
-3300.23
-3356.4
-3567.21
-3516.85
-3464.7
-3411.2
-2772.45
-2721.78
-2670.42
-2566.96
-2618.8
-2560.77
-2607.75
-2514.53
-2654.75
-2700.91
-2745.38
-2788.82
-2833.24
-2879.25
-2926.19
-2974.55
-3024.74
-3076.43
-3128.9
-3181.96
-3512.4
-3461.23
-3408.1
-3353.1
-3296.41
-3237.4
-3663.63
-3748.41
-3702.97
3990
3961.99
3925.84
3878.22
3833
3788.14
3988.93
3956.96
3915.1
3873.74
3830.43
3783.56
3736.31
3693.12
3645.45
3603.12
3561.69
3615.83
2617.19
2665.46
2709.44
2754.43
2804.47
2854.39
2904.78
2956.23
3008.93
3062.28
3116.26
3172.43
2566.52
2514.59
2462.48
2469.91
2526.55
2581.84
2637.5
2692.83
2746.22
2797.21
2846.29
2894.52
2942.82
2991.54
3039.63
3086.92
3269.32
3204.32
3131.9
3330.32
3342.99
3399.59
2411.14
3609.58
3560.44
3507.74
3454.27
3554.33
3504.31
3452.98
3400.61
3347.56
3294.37
3236.02
3656.74
3743.16
3698.31
-3990
-3961.99
-3925.84
-3878.22
-3833
-3788.14
-3988.93
-3956.96
-3915.1
-3873.74
-3830.43
-3783.56
-3736.31
-3693.12
-3645.45
-3603.12
-3561.69
-3615.83
-2746.22
-2797.21
-2846.29
-2894.52
-2942.82
-2991.54
-3039.63
-3086.92
-3269.32
-3204.32
-3131.9
-3330.32
-3342.99
-3399.59
-3609.58
-3560.44
-3507.74
-3454.27
-2692.83
-2637.5
-2581.84
-2469.91
-2526.55
-2462.48
-2514.59
-2566.52
-2411.14
-2617.19
-2665.46
-2709.44
-2754.43
-2804.47
-2854.39
-2904.78
-2956.23
-3008.93
-3062.28
-3116.26
-3172.43
-3554.33
-3504.31
-3452.98
-3400.61
-3347.56
-3294.37
-3236.02
-3656.74
-3743.16
-3698.31
3991.01
3969.04
3960.53
3917.86
3873.5
3828.96
3784.2
3989.19
3957.86
3917.77
3879.25
3828.7
3780.4
3732.33
3688.52
3640.09
3596.92
2528.16
2581.51
2629.83
2666.69
2726.06
2780.4
2833.46
2886.57
2940.38
2994.26
3047.51
3098.83
3204.91
3137.83
2471.63
2412.83
2352.98
2362.52
2428.01
2487.04
2546.19
2608.58
2667.25
2722.14
2773.8
2823.39
2872.31
2921.72
2970.79
3018.18
3062.65
3320.65
3259.92
3195.55
3073.3
3135.65
3388.47
3378.76
3444.08
2292.32
3653.45
3608.14
3551.95
3498.1
3547.5
3497.08
3446.07
3395.71
3350.47
3270.94
3330.52
3739.69
3696.44
-3991.01
-3969.04
-3960.53
-3917.86
-3873.5
-3828.96
-3784.2
-3989.19
-3957.86
-3917.77
-3879.25
-3828.7
-3780.4
-3732.33
-3688.52
-3640.09
-3596.92
-2667.25
-2722.14
-2773.8
-2823.39
-2872.31
-2921.72
-2970.79
-3018.18
-3062.65
-3320.65
-3259.92
-3195.55
-3073.3
-3135.65
-3388.47
-3378.76
-3444.08
-3653.45
-3608.14
-3551.95
-3498.1
-2608.58
-2546.19
-2487.04
-2362.52
-2428.01
-2352.98
-2412.83
-2471.63
-2528.16
-2292.32
-2581.51
-2629.83
-2666.69
-2726.06
-2780.4
-2833.46
-2886.57
-2940.38
-2994.26
-3047.51
-3098.83
-3204.91
-3137.83
-3547.5
-3497.08
-3446.07
-3395.71
-3350.47
-3270.94
-3330.52
-3739.69
-3696.44
3991.02
3989.51
3957.3
3914.15
3870.26
3825.87
3781.12
3989.27
3960.2
3926.42
3917.21
3871.89
3824.83
3776.79
3728.23
3683.84
3634.89
3590.99
2432.72
2492.64
2546.52
2590.92
2584.28
2647.23
2704.81
2760.51
2815.61
2871
2925.97
2979.79
3031.6
3077.31
3245.15
3168.79
3092.66
2367.87
2297.96
2230.27
2237.7
2318.78
2388.72
2442.39
2518.73
2584.66
2644.46
2699.67
2751.18
2800.72
2850.88
2901.71
2951.69
3002.49
3317.11
3372.58
3251.57
3192.1
3023.71
3083.99
3138.92
3434.64
3427.04
3488.59
2116.19
3657.98
3643.64
3593.42
3541.35
3540.97
3490.1
3438.81
3387.04
3314.78
3374.62
3736.49
3691.96
-3991.02
-3989.51
-3957.3
-3914.15
-3870.26
-3825.87
-3781.12
-3989.27
-3960.2
-3926.42
-3917.21
-3871.89
-3824.83
-3776.79
-3728.23
-3683.84
-3634.89
-3590.99
-2584.66
-2644.46
-2699.67
-2751.18
-2800.72
-2850.88
-2901.71
-2951.69
-3002.49
-3317.11
-3372.58
-3251.57
-3192.1
-3023.71
-3083.99
-3138.92
-3434.64
-3427.04
-3488.59
-3657.98
-3643.64
-3593.42
-3541.35
-2518.73
-2442.39
-2388.72
-2237.7
-2318.78
-2230.27
-2297.96
-2367.87
-2432.72
-2492.64
-2116.19
-2546.52
-2590.92
-2584.28
-2647.23
-2704.81
-2760.51
-2815.61
-2871
-2925.97
-2979.79
-3031.6
-3077.31
-3245.15
-3168.79
-3092.66
-3540.97
-3490.1
-3438.81
-3387.04
-3314.78
-3374.62
-3736.49
-3691.96
3988.59
3955.82
3912.23
3868.27
3823.77
3778.61
3989.73
3960.23
3957.76
3914.88
3870.04
3821.89
3773.32
3724.26
3679.26
3629.72
3585.17
2327.47
2398.99
2461.26
2519.8
2502.08
2566.72
2627.59
2685.82
2743.08
2800.33
2856.93
2912.4
2966.9
3023.62
3308.4
3255.97
3195.17
3132
3076.29
3023.78
2250.24
2134.79
2124.63
2103.76
2195.07
2282.95
2347.8
2349.37
2428.63
2499.63
2564.16
2623.4
2678.02
2727.73
2777.64
2831.05
2882.21
2929.49
2961.22
3375.77
3357.31
3300.08
3422.07
3240.8
3184.89
2981.25
3040.88
3096.7
3149.28
3480.41
3473.57
3532.79
2035.46
3684.77
3634.86
3584.25
3534.51
3482.95
3430.2
3365.8
3421.73
3732.7
-3988.59
-3955.82
-3912.23
-3868.27
-3823.77
-3778.61
-3989.73
-3960.23
-3957.76
-3914.88
-3870.04
-3821.89
-3773.32
-3724.26
-3679.26
-3629.72
-3585.17
-2499.63
-2564.16
-2623.4
-2678.02
-2727.73
-2777.64
-2831.05
-2882.21
-2929.49
-2961.22
-3375.77
-3357.31
-3300.08
-3422.07
-3240.8
-3184.89
-2981.25
-3040.88
-3096.7
-3149.28
-3480.41
-3473.57
-3532.79
-3684.77
-3634.86
-3584.25
-2428.63
-2349.37
-2347.8
-2282.95
-2103.76
-2195.07
-2124.63
-2134.79
-2250.24
-2327.47
-2398.99
-2461.26
-2035.46
-2519.8
-2502.08
-2566.72
-2627.59
-2685.82
-2743.08
-2800.33
-2856.93
-2912.4
-2966.9
-3023.62
-3308.4
-3255.97
-3195.17
-3132
-3076.29
-3023.78
-3534.51
-3482.95
-3430.2
-3365.8
-3421.73
-3732.7
3988.33
3955.2
3911.45
3867.47
3822.69
3776.77
3989.45
3989.18
3958.48
3919.23
3868.42
3819.41
3770.13
3720.35
3674.7
3624.56
3579.37
2204.82
2298.57
2369.73
2434.64
2416.81
2485.47
2548.8
2609.4
2668.78
2727.97
2786.37
2843.2
2898.7
2955.54
3362.69
3312.75
3266.17
3210.53
3153.49
3096.01
3036.69
2971.07
2124.42
2040.21
2027.24
2000.96
2173.35
2264.67
2258.69
2338.67
2413.14
2481.69
2544.81
2602.73
2655.26
2698.31
2759.39
2813.7
2863.05
2904.33
2912.94
3413.57
3401.89
3346.6
3293.93
3466.25
3249.32
3202.09
2945.83
3003.47
3059.4
3113.57
3167.46
3525.71
3519.05
3577.45
3729.3
3679.6
3628.66
3528.1
3475.71
3415.65
3469.19
-3988.33
-3955.2
-3911.45
-3867.47
-3822.69
-3776.77
-3989.45
-3989.18
-3958.48
-3919.23
-3868.42
-3819.41
-3770.13
-3720.35
-3674.7
-3624.56
-3579.37
-2413.14
-2481.69
-2544.81
-2602.73
-2655.26
-2698.31
-2759.39
-2813.7
-2863.05
-2904.33
-2912.94
-3413.57
-3401.89
-3346.6
-3293.93
-3466.25
-3249.32
-3202.09
-2945.83
-3003.47
-3059.4
-3113.57
-3167.46
-3525.71
-3519.05
-3577.45
-3729.3
-3679.6
-3628.66
-2338.67
-2264.67
-2258.69
-2173.35
-2027.24
-2000.96
-2040.21
-2124.42
-2204.82
-2298.57
-2369.73
-2434.64
-2416.81
-2485.47
-2548.8
-2609.4
-2668.78
-2727.97
-2786.37
-2843.2
-2898.7
-2955.54
-3362.69
-3312.75
-3266.17
-3210.53
-3153.49
-3096.01
-3036.69
-2971.07
-3528.1
-3475.71
-3415.65
-3469.19
3988.57
3955.23
3911.85
3868.1
3822.93
3776.6
3990.29
3966.43
3957.99
3913.43
3866.85
3817.2
3767.09
3716.57
3670.19
3619.62
3573.7
2101.12
2088.96
2196.04
2275.79
2337.39
2333.3
2404.3
2469.41
2531.54
2592.66
2653.72
2714.24
2772.74
2827.78
2878.28
2914.86
3412.73
3365.95
3321.54
3275.67
3223.55
3169.77
3114.8
3058.42
3001.17
2905.21
2948.12
2027.87
2320.59
2023.67
2079.36
2172.32
2168.8
2249.23
2325.31
2397.37
2464.41
2525.92
2581.39
2627.29
2628.44
2689.82
2746.65
2799.98
2851.9