/*--------------------------------*- C++ -*----------------------------------*\
| =========                 |                                                 |
| \\      /  F ield         | OpenFOAM: The Open Source CFD Toolbox           |
|  \\    /   O peration     | Version:  2.4.x                                 |
|   \\  /    A nd           | Web:      www.OpenFOAM.org                      |
|    \\/     M anipulation  |                                                 |
\*---------------------------------------------------------------------------*/
FoamFile
{
    version     2.0;
    format      ascii;
    class       volScalarField;
    location    "10";
    object      gradTx;
}
// * * * * * * * * * * * * * * * * * * * * * * * * * * * * * * * * * * * * * //

dimensions      [0 -1 0 1 0 0 0];

internalField   nonuniform List<scalar> 
6768
(
-0.0810627
-0.0810627
-0.249966
-0.111162
-0.249966
-0.111162
-0.533256
-0.288489
-0.15221
-0.533256
-0.288489
-0.15221
-0.87387
-0.558659
-0.363243
-0.146251
-0.87387
-0.558659
-0.363243
-0.146251
-1.26898
-0.872214
-0.731794
-0.349069
-0.146547
-1.26898
-0.872214
-0.731794
-0.349069
-0.146547
-1.67542
-1.14365
-1.2481
-0.586804
-0.970768
-0.302363
-0.169795
-1.67542
-1.14365
-1.2481
-0.586804
-0.970768
-0.302363
-0.169795
-2.08965
-1.45324
-1.69811
-1.41699
-0.470605
-0.785299
-1.20463
-0.27499
-2.08965
-1.45324
-1.69811
-1.41699
-0.470605
-0.785299
-1.20463
-0.27499
-2.58113
-1.77457
-2.07935
-1.90489
-1.73425
-0.557438
-0.918509
-1.43819
-0.310859
-2.58113
-1.77457
-2.07935
-1.90489
-1.73425
-0.557438
-0.918509
-1.43819
-0.310859
-3.07287
-2.10328
-2.44717
-2.36553
-2.22341
-2.23022
-0.627344
-0.932611
-1.2646
-1.75841
-0.340224
-3.07287
-2.10328
-2.44717
-2.36553
-2.22341
-2.23022
-0.627344
-0.932611
-1.2646
-1.75841
-0.340224
-3.54756
-2.45782
-2.85314
-2.73169
-2.65934
-2.97245
-2.34363
-2.98048
-0.656761
-0.824201
-1.36535
-1.87276
-0.389496
-3.54756
-2.45782
-2.85314
-2.73169
-2.65934
-2.97245
-2.34363
-2.98048
-0.656761
-0.824201
-1.36535
-1.87276
-0.389496
-3.98318
-2.84651
-3.33632
-3.19539
-3.106
-3.56744
-2.43998
-2.92898
-3.31683
-0.40117
-0.802697
-1.37943
-1.93783
-3.98318
-2.84651
-3.33632
-3.19539
-3.106
-3.56744
-2.43998
-2.92898
-3.31683
-0.40117
-0.802697
-1.37943
-1.93783
-4.47943
-3.26167
-3.89879
-3.68799
-3.67262
-4.06386
-3.78199
-2.53872
-3.05676
-3.52968
-4.03225
-0.303228
-0.701341
-1.35451
-1.97324
-4.47943
-3.26167
-3.89879
-3.68799
-3.67262
-4.06386
-3.78199
-2.53872
-3.05676
-3.52968
-4.03225
-0.303228
-0.701341
-1.35451
-1.97324
-4.90589
-3.55668
-3.93484
-4.50311
-4.19857
-4.14211
-4.46747
-4.22667
-2.4797
-3.21505
-3.81028
-4.29966
-4.64974
-0.119654
-0.482204
-1.18997
-1.86529
-4.90589
-3.55668
-3.93484
-4.50311
-4.19857
-4.14211
-4.46747
-4.22667
-2.4797
-3.21505
-3.81028
-4.29966
-4.64974
-0.119654
-0.482204
-1.18997
-1.86529
-5.26982
-4.32603
-5.03599
-4.81839
-4.63269
-5.00524
-4.83399
-2.4331
-3.23408
-4.10223
-4.63373
-5.0346
-5.29842
-0.188076
-0.482612
-0.852721
-1.21193
-1.83431
-5.26982
-4.32603
-5.03599
-4.81839
-4.63269
-5.00524
-4.83399
-2.4331
-3.23408
-4.10223
-4.63373
-5.0346
-5.29842
-0.188076
-0.482612
-0.852721
-1.21193
-1.83431
-5.73746
-4.73972
-5.59903
-5.34655
-5.18544
-5.60599
-5.45289
-2.89059
-3.41933
-4.12278
-4.83828
-5.42733
-5.6984
-6.00401
-0.275071
-0.429006
-0.67318
-1.2936
-2.17461
-5.73746
-4.73972
-5.59903
-5.34655
-5.18544
-5.60599
-5.45289
-2.89059
-3.41933
-4.12278
-4.83828
-5.42733
-5.6984
-6.00401
-0.275071
-0.429006
-0.67318
-1.2936
-2.17461
-6.27504
-4.99479
-5.41176
-6.22987
-5.86547
-5.75167
-6.25263
-6.11464
-2.875
-3.52385
-4.25209
-4.96391
-5.68541
-6.1488
-6.58283
-6.6665
-0.121457
-0.404698
-1.36104
-2.05683
-6.27504
-4.99479
-5.41176
-6.22987
-5.86547
-5.75167
-6.25263
-6.11464
-2.875
-3.52385
-4.25209
-4.96391
-5.68541
-6.1488
-6.58283
-6.6665
-0.121457
-0.404698
-1.36104
-2.05683
-6.66866
-6.9202
-5.77478
-6.62356
-6.3886
-6.31935
-6.96658
-6.8173
-2.80073
-3.48322
-4.25478
-4.99503
-5.6725
-6.36737
-6.98096
-7.11723
-7.06248
-7.33093
-0.0560437
-0.399309
-0.991306
-1.29357
-2.02206
-6.66866
-6.9202
-5.77478
-6.62356
-6.3886
-6.31935
-6.96658
-6.8173
-2.80073
-3.48322
-4.25478
-4.99503
-5.6725
-6.36737
-6.98096
-7.11723
-7.06248
-7.33093
-0.0560437
-0.399309
-0.991306
-1.29357
-2.02206
-7.53768
-5.98701
-6.37637
-7.01843
-6.82862
-6.9134
-7.85312
-7.58894
-2.69866
-3.38573
-4.21553
-4.99865
-5.6697
-6.16786
-6.91417
-7.58644
-8.25786
-7.34828
-7.77151
-8.07908
0.216074
-1.11933
-0.426539
-0.918038
-1.31465
-1.92752
-7.53768
-5.98701
-6.37637
-7.01843
-6.82862
-6.9134
-7.85312
-7.58894
-2.69866
-3.38573
-4.21553
-4.99865
-5.6697
-6.16786
-6.91417
-7.58644
-8.25786
-7.34828
-7.77151
-8.07908
0.216074
-1.11933
-0.426539
-0.918038
-1.31465
-1.92752
-8.06877
-8.48161
-6.60152
-7.25449
-7.40366
-7.46072
-8.83497
-8.3941
-2.56325
-3.22931
-4.15761
-5.03563
-5.81383
-6.51777
-7.37108
-8.31308
-8.61342
-8.44771
-7.92935
-8.9026
-8.5436
-8.88416
-0.57123
-0.741728
-1.27069
-1.8444
-8.06877
-8.48161
-6.60152
-7.25449
-7.40366
-7.46072
-8.83497
-8.3941
-2.56325
-3.22931
-4.15761
-5.03563
-5.81383
-6.51777
-7.37108
-8.31308
-8.61342
-8.44771
-7.92935
-8.9026
-8.5436
-8.88416
-0.57123
-0.741728
-1.27069
-1.8444
-9.02526
-6.85474
-7.51906
-7.82237
-7.96829
-8.5658
-9.91788
-9.23392
-2.44162
-2.96256
-4.12123
-5.07962
-5.93608
-6.70562
-7.41744
-8.98207
-9.39468
-9.01147
-8.195
-9.13101
-9.79922
-9.33934
-9.72502
-0.225849
-0.519879
-1.25596
-1.92572
-9.02526
-6.85474
-7.51906
-7.82237
-7.96829
-8.5658
-9.91788
-9.23392
-2.44162
-2.96256
-4.12123
-5.07962
-5.93608
-6.70562
-7.41744
-8.98207
-9.39468
-9.01147
-8.195
-9.13101
-9.79922
-9.33934
-9.72502
-0.225849
-0.519879
-1.25596
-1.92572
-9.50404
-7.14386
-7.74623
-8.294
-9.04765
-10.7092
-10.1833
-2.50323
-3.08998
-4.24164
-5.24199
-6.02065
-6.83119
-7.57742
-9.7952
-10.3364
-10.1222
-8.40887
-8.86907
-9.48653
-10.8546
-9.98233
-10.1783
-10.5736
0.161768
-0.145993
-1.08999
-1.6763
-9.50404
-7.14386
-7.74623
-8.294
-9.04765
-10.7092
-10.1833
-2.50323
-3.08998
-4.24164
-5.24199
-6.02065
-6.83119
-7.57742
-9.7952
-10.3364
-10.1222
-8.40887
-8.86907
-9.48653
-10.8546
-9.98233
-10.1783
-10.5736
0.161768
-0.145993
-1.08999
-1.6763
-9.97492
-7.51951
-7.98657
-8.90776
-9.62421
-10.6658
-11.5099
-10.9388
-2.20325
-3.56594
-4.14755
-5.01597
-5.96526
-6.8466
-7.69226
-10.6582
-11.2202
-11.0211
-8.63085
-9.52097
-10.3962
-11.7519
-11.5504
-11.3107
-11.0194
-11.3817
-0.0154103
-0.328139
-0.855102
-1.21365
-2.0637
-9.97492
-7.51951
-7.98657
-8.90776
-9.62421
-10.6658
-11.5099
-10.9388
-2.20325
-3.56594
-4.14755
-5.01597
-5.96526
-6.8466
-7.69226
-10.6582
-11.2202
-11.0211
-8.63085
-9.52097
-10.3962
-11.7519
-11.5504
-11.3107
-11.0194
-11.3817
-0.0154103
-0.328139
-0.855102
-1.21365
-2.0637
-10.3721
-7.80528
-8.36497
-9.50641
-9.89337
-11.5529
-11.9342
-11.7721
-2.41458
-3.20732
-3.61184
-4.33764
-5.01383
-5.84405
-6.76462
-7.69195
-11.5144
-12.0382
-11.843
-8.56853
-9.72148
-10.8858
-12.4863
-12.5302
-12.6894
-12.2219
-11.2981
-11.834
-12.1595
-0.121815
-0.257504
-0.397936
-1.2561
-1.74766
-10.3721
-7.80528
-8.36497
-9.50641
-9.89337
-11.5529
-11.9342
-11.7721
-2.41458
-3.20732
-3.61184
-4.33764
-5.01383
-5.84405
-6.76462
-7.69195
-11.5144
-12.0382
-11.843
-8.56853
-9.72148
-10.8858
-12.4863
-12.5302
-12.6894
-12.2219
-11.2981
-11.834
-12.1595
-0.121815
-0.257504
-0.397936
-1.2561
-1.74766
-10.815
-8.06995
-8.74144
-9.13138
-10.4313
-11.1845
-12.1013
-12.6657
-12.4427
-2.35156
-3.19821
-3.76689
-4.41638
-5.06521
-5.80193
-6.64935
-7.57254
-12.2969
-12.8104
-12.5815
-8.34325
-9.32067
-10.7675
-13.0732
-13.1832
-13.3179
-13.0522
-14.3899
-12.9579
-11.5644
-10.763
-12.5904
-12.8893
-0.372686
-0.757799
-1.4441
-1.37217
-10.815
-8.06995
-8.74144
-9.13138
-10.4313
-11.1845
-12.1013
-12.6657
-12.4427
-2.35156
-3.19821
-3.76689
-4.41638
-5.06521
-5.80193
-6.64935
-7.57254
-12.2969
-12.8104
-12.5815
-8.34325
-9.32067
-10.7675
-13.0732
-13.1832
-13.3179
-13.0522
-14.3899
-12.9579
-11.5644
-10.763
-12.5904
-12.8893
-0.372686
-0.757799
-1.4441
-1.37217
-11.2729
-8.45536
-8.84834
-9.53211
-9.89661
-10.6015
-12.033
-12.8081
-13.3606
-13.1417
-1.60593
-2.41299
-3.16837
-3.80887
-4.4403
-5.08646
-5.78407
-6.56474
-7.4236
-13.0485
-13.5245
-13.3447
-8.16045
-8.99015
-9.61031
-13.8352
-13.5519
-14.3002
-13.9174
-13.2295
-15.0807
-14.1797
-11.8191
-12.5837
-10.8748
-11.3849
-13.3115
-13.56
-0.564737
-1.00072
-1.18383
-11.2729
-8.45536
-8.84834
-9.53211
-9.89661
-10.6015
-12.033
-12.8081
-13.3606
-13.1417
-1.60593
-2.41299
-3.16837
-3.80887
-4.4403
-5.08646
-5.78407
-6.56474
-7.4236
-13.0485
-13.5245
-13.3447
-8.16045
-8.99015
-9.61031
-13.8352
-13.5519
-14.3002
-13.9174
-15.0807
-14.1797
-13.2295
-11.8191
-12.5837
-10.8748
-11.3849
-13.3115
-13.56
-0.564737
-1.00072
-1.18383
-11.7381
-12.2638
-9.33567
-9.70226
-10.0952
-11.2195
-12.5003
-13.4578
-14.009
-13.7825
-0.948182
-1.61998
-2.35398
-3.10918
-3.75498
-4.42423
-5.10506
-5.77662
-6.5057
-7.30882
-13.744
-14.1728
-13.9905
-8.05776
-8.91713
-9.79618
-14.2573
-14.2424
-15.4589
-15.0111
-14.6718
-13.6504
-15.5127
-14.8131
-12.1227
-13.1177
-10.6818
-11.3895
-13.969
-14.1716
-0.644886
-11.7381
-12.2638
-9.33567
-9.70226
-10.0952
-11.2195
-12.5003
-13.4578
-14.009
-13.7825
-0.948182
-1.61998
-2.35398
-3.10918
-3.75498
-4.42423
-5.10506
-5.77662
-6.5057
-7.30882
-13.744
-14.1728
-13.9905
-8.05776
-8.91713
-9.79618
-14.2573
-14.2424
-15.4589
-15.0111
-15.5127
-14.8131
-14.6718
-13.6504
-12.1227
-13.1177
-10.6818
-11.3895
-13.969
-14.1716
-0.644886
-12.8617
-13.5466
-14.1929
-10.5969
-11.7591
-12.9869
-14.2197
-14.5017
-14.3865
-0.225488
-0.60905
-1.55731
-2.30792
-2.89783
-3.65546
-4.34463
-5.08606
-5.77812
-6.47931
-7.23427
-14.3794
-14.7851
-14.5627
-7.96517
-8.82769
-9.73609
-14.9664
-15.163
-16.4527
-15.8385
-15.2989
-15.7107
-14.5237
-16.5534
-16.0716
-12.3268
-13.4804
-10.5308
-11.3082
-14.5808
-14.7818
-12.8617
-13.5466
-14.1929
-10.5969
-11.7591
-12.9869
-14.2197
-14.5017
-14.3865
-0.225488
-0.60905
-1.55731
-2.30792
-2.89783
-3.65546
-4.34463
-5.08606
-5.77812
-6.47931
-7.23427
-14.3794
-14.7851
-14.5627
-7.96517
-8.82769
-9.73609
-14.9664
-15.163
-16.4527
-15.8385
-16.5534
-16.0716
-15.7107
-15.2989
-14.5237
-12.3268
-13.4804
-10.5308
-11.3082
-14.5808
-14.7818
-14.8088
-11.1261
-12.3137
-13.3776
-14.8596
-15.0095
-14.9569
0.322646
0.00934901
-1.0735
-1.77191
-2.76214
-3.56743
-4.20658
-4.99821
-5.7365
-6.44693
-7.17789
-14.9982
-15.4184
-15.1894
-7.87261
-8.70405
-9.60403
-15.7456
-15.9113
-16.8764
-16.859
-16.0684
-16.6797
-16.9354
-14.9611
-17.571
-17.5198
-13.5285
-12.1701
-10.3589
-11.0954
-15.2134
-15.3974
-14.8088
-11.1261
-12.3137
-13.3776
-14.8596
-15.0095
-14.9569
0.322646
0.00934901
-1.0735
-1.77191
-2.76214
-3.56743
-4.20658
-4.99821
-5.7365
-6.44693
-7.17789
-14.9982
-15.4184
-15.1894
-7.87261
-8.70405
-9.60403
-15.7456
-15.9113
-16.8764
-16.859
-17.571
-17.5198
-16.9354
-16.6797
-16.0684
-14.9611
-12.1701
-13.5285
-10.3589
-11.0954
-15.2134
-15.3974
-15.2653
-11.7149
-13.1008
-13.6795
-14.2868
-15.4945
-15.751
-15.5252
0.0237471
-0.292115
-0.84497
-0.914197
-1.94856
-2.87538
-3.37612
-4.01348
-4.8503
-5.64324
-6.3823
-7.10965
-15.655
-16.0911
-15.8702
-7.75509
-8.55199
-9.42818
-16.4384
-16.5513
-17.3912
-17.5713
-16.1954
-17.9745
-18.2545
-18.7953
-14.954
-18.3615
-18.6315
-12.921
-11.7611
-10.131
-10.8031
-15.8316
-15.9803
-15.2653
-11.7149
-13.1008
-13.6795
-14.2868
-15.4945
-15.751
-15.5252
0.0237471
-0.292115
-0.84497
-0.914197
-1.94856
-2.87538
-3.37612
-4.01348
-4.8503
-5.64324
-6.3823
-7.10965
-15.655
-16.0911
-15.8702
-7.75509
-8.55199
-9.42818
-16.4384
-16.5513
-17.3912
-17.5713
-18.3615
-18.6315
-18.7953
-18.2545
-17.9745
-16.1954
-14.954
-11.7611
-12.921
-10.131
-10.8031
-15.8316
-15.9803
-15.4756
-12.3374
-13.9134
-14.7407
-15.0439
-15.8168
-16.2677
-16.147
-0.154377
-0.335605
-0.166399
-0.801167
-1.84755
-2.37523
-3.14007
-3.81661
-4.64741
-5.48465
-6.2707
-7.01275
-16.2578
-16.6853
-16.5485
-7.64651
-8.39814
-9.21892
-17.0736
-17.1409
-17.8946
-18.1627
-14.679
-14.898
-16.524
-19.983
-18.785
-20.816
-20.3188
-19.9346
-12.8939
-18.8325
-19.4522
-12.1882
-11.45
-9.8684
-10.4773
-16.4069
-16.5644
-15.4756
-12.3374
-13.9134
-14.7407
-15.0439
-15.8168
-16.2677
-16.147
-0.154377
-0.335605
-0.166399
-0.801167
-1.84755
-2.37523
-3.14007
-3.81661
-4.64741
-5.48465
-6.2707
-7.01275
-16.2578
-16.6853
-16.5485
-7.64651
-8.39814
-9.21892
-17.0736
-17.1409
-17.8946
-18.1627
-18.8325
-19.4522
-19.9346
-20.3188
-19.983
-20.816
-18.785
-16.524
-14.898
-14.679
-12.8939
-11.45
-12.1882
-9.8684
-10.4773
-16.4069
-16.5644
-15.9743
-12.512
-13.0687
-13.578
-15.2999
-15.5261
-16.2277
-16.7012
-16.674
0.44669
0.265955
-1.19396
-1.68787
-1.77669
-2.44643
-3.07053
-3.66126
-4.43999
-5.28483
-6.12588
-6.9069
-16.8305
-17.2494
-17.1206
-7.54423
-8.27975
-9.03664
-17.595
-17.662
-18.3741
-18.6973
-14.5693
-16.2709
-16.8572
-18.2835
-21.1592
-21.8623
-20.2562
-21.1502
-21.7363
-13.4736
-19.7319
-19.4048
-12.5535
-11.0832
-9.64241
-10.1383
-17.0038
-17.1129
-15.9743
-12.512
-13.0687
-13.578
-15.2999
-15.5261
-16.2277
-16.7012
-16.674
0.44669
0.265955
-1.19396
-1.68787
-1.77669
-2.44643
-3.07053
-3.66126
-4.43999
-5.28483
-6.12588
-6.9069
-16.8305
-17.2494
-17.1206
-7.54423
-8.27975
-9.03664
-17.595
-17.662
-18.3741
-18.6973
-19.4048
-19.7319
-21.7363
-21.1502
-21.1592
-21.8623
-20.2562
-18.2835
-16.8572
-16.2709
-14.5693
-13.4736
-11.0832
-12.5535
-9.64241
-10.1383
-17.0038
-17.1129
-16.2932
-16.4395
-17.54
-13.8354
-14.5545
-15.804
-16.1992
-16.6848
-17.1445
-17.1501
0.363871
-0.0385348
-1.32763
-1.50214
-1.54948
-1.90494
-2.47611
-2.9951
-3.4855
-4.23236
-5.0578
-5.93541
-6.77303
-17.4285
-17.8431
-17.6779
-7.43321
-8.16992
-8.89732
-18.1494
-18.1665
-18.8338
-19.1694
-14.9541
-17.0764
-18.2985
-19.7711
-22.327
-23.0559
-23.1969
-21.5927
-23.986
-23.82
-13.2764
-20.1777
-19.5489
-11.9023
-10.4852
-9.52615
-10.0163
-17.5614
-17.5992
-16.2932
-16.4395
-17.54
-13.8354
-14.5545
-15.804
-16.1992
-16.6848
-17.1445
-17.1501
0.363871
-0.0385348
-1.32763
-1.50214
-1.54948
-1.90494
-2.47611
-2.9951
-3.4855
-4.23236
-5.0578
-5.93541
-6.77303
-17.4285
-17.8431
-17.6779
-7.43321
-8.16992
-8.89732
-18.1494
-18.1665
-18.8338
-19.1694
-19.5489
-20.1777
-23.82
-23.986
-23.1969
-22.327
-23.0559
-21.5927
-19.7711
-18.2985
-17.0764
-14.9541
-13.2764
-11.9023
-10.4852
-9.52615
-10.0163
-17.5614
-17.5992
-18.5272
-19.3282
-14.926
-16.0386
-16.6543
-17.1374
-17.5657
-17.585
0.814908
-2.13206
-0.848249
-1.06992
-1.06952
-1.48518
-1.91792
-2.42467
-2.84856
-3.31243
-4.02223
-4.86303
-5.75207
-6.6291
-17.9889
-18.3947
-18.2669
-7.32545
-8.07164
-8.77515
-18.7064
-18.7037
-19.351
-19.4687
-17.0084
-15.2448
-18.215
-19.5211
-21.0705
-23.4869
-24.1865
-24.7085
-25.2905
-22.8346
-25.8644
-23.6165
-20.8011
-19.7984
-12.2177
-10.2247
-9.2897
-9.47541
-18.051
-18.0177
-18.5272
-19.3282
-14.926
-16.0386
-16.6543
-17.1374
-17.5657
-17.585
0.814908
-2.13206
-0.848249
-1.06992
-1.06952
-1.48518
-1.91792
-2.42467
-2.84856
-3.31243
-4.02223
-4.86303
-5.75207
-6.6291
-17.9889
-18.3947
-18.2669
-7.32545
-8.07164
-8.77515
-18.7064
-18.7037
-19.351
-19.4687
-19.7984
-20.8011
-23.6165
-25.8644
-25.2905
-24.7085
-23.4869
-24.1865
-22.8346
-21.0705
-19.5211
-18.215
-17.0084
-15.2448
-12.2177
-10.2247
-9.2897
-9.47541
-18.051
-18.0177
-20.4807
-15.3757
-16.4102
-17.0706
-17.5151
-17.9048
-17.9616
-0.288546
-0.571879
-1.46169
-2.04498
-2.25678
-2.76369
-3.19094
-3.83852
-4.67912
-5.58146
-6.48486
-18.4885
-18.911
-18.8056
-7.22985
-7.99537
-8.65033
-19.2769
-19.2668
-19.9929
-20.0768
-17.4835
-15.4563
-13.2962
-19.0602
-20.5877
-22.2376
-24.654
-25.326
-25.9451
-26.517
-27.0139
-24.0165
-27.9565
-21.1335
-24.2783
-12.1053
-10.8408
-11.6703
-9.12012
-9.89334
-18.4967
-18.4315
-20.4807
-15.3757
-16.4102
-17.0706
-17.5151
-17.9048
-17.9616
-0.288546
-0.571879
-1.46169
-2.04498
-2.25678
-2.76369
-3.19094
-3.83852
-4.67912
-5.58146
-6.48486
-18.4885
-18.911
-18.8056
-7.22985
-7.99537
-8.65033
-19.2769
-19.2668
-19.9929
-20.0768
-21.1335
-24.2783
-27.9565
-27.0139
-26.517
-25.9451
-24.654
-25.326
-24.0165
-22.2376
-20.5877
-19.0602
-17.4835
-15.4563
-13.2962
-12.1053
-11.6703
-10.8408
-9.12012
-9.89334
-18.4967
-18.4315
-21.438
-15.8712
-16.824
-17.463
-17.8554
-18.2525
-18.3529
0.497643
0.171835
-1.06599
-1.55713
-2.43645
-2.72936
-3.24172
-3.775
-4.58962
-5.44291
-6.35292
-18.9745
-19.4316
-19.3521
-7.12753
-7.95686
-8.6355
-19.8565
-19.9051
-20.8021
-20.7943
-18.2298
-16.3598
-14.4752
-13.0392
-19.9303
-21.6077
-23.3581
-25.8854
-26.5338
-27.1384
-27.6376
-28.0389
-28.4254
-25.2061
-28.5874
-25.1435
-21.6663
-10.7865
-11.5373
-11.8795
-9.33634
-18.9649
-18.906
-21.438
-15.8712
-16.824
-17.463
-17.8554
-18.2525
-18.3529
0.497643
0.171835
-1.06599
-1.55713
-2.43645
-2.72936
-3.24172
-3.775
-4.58962
-5.44291
-6.35292
-18.9745
-19.4316
-19.3521
-7.12753
-7.95686
-8.6355
-19.8565
-19.9051
-20.8021
-20.7943
-21.6663
-25.1435
-28.4254
-28.5874
-28.0389
-27.6376
-27.1384
-25.8854
-26.5338
-25.2061
-23.3581
-21.6077
-19.9303
-18.2298
-16.3598
-14.4752
-13.0392
-10.7865
-11.5373
-11.8795
-9.33634
-18.9649
-18.906
-22.1782
-16.3896
-17.3837
-17.8513
-18.1589
-18.5988
-18.7631
0.106022
-0.411507
-1.26815
-0.609123
-1.59104
-2.0295
-2.86041
-3.70142
-3.57421
-4.78504
-5.45016
-6.26689
-19.4661
-19.9279
-19.8771
-7.0293
-7.86578
-8.67731
-20.4617
-20.5908
-21.6123
-21.8581
-19.0775
-17.2883
-15.562
-14.1757
-13.1073
-20.8461
-22.6386
-24.5083
-27.1569
-27.7962
-28.3558
-28.8037
-29.1637
-29.4068
-29.4497
-26.47
-26.4969
-24.5051
-28.8358
-22.5965
-9.60674
-10.5148
-10.6144
-11.3391
-19.452
-19.3705
-22.1782
-16.3896
-17.3837
-17.8513
-18.1589
-18.5988
-18.7631
0.106022
-0.411507
-1.26815
-0.609123
-1.59104
-2.0295
-2.86041
-3.70142
-3.57421
-4.78504
-5.45016
-6.26689
-19.4661
-19.9279
-19.8771
-7.0293
-7.86578
-8.67731
-20.4617
-20.5908
-21.6123
-21.8581
-22.5965
-24.5051
-29.4068
-29.4497
-26.4969
-28.8358
-29.1637
-28.8037
-28.3558
-27.1569
-27.7962
-26.47
-24.5083
-22.6386
-20.8461
-19.0775
-17.2883
-15.562
-14.1757
-13.1073
-9.60674
-10.5148
-10.6144
-11.3391
-19.452
-19.3705
-22.6066
-16.9516
-18.0856
-17.9937
-18.4686
-18.9571
-19.1804
-0.193094
-1.0162
-1.22621
-1.08851
-1.88272
-1.49972
-2.29334
-2.92725
-3.24903
-3.97722
-4.69279
-5.78633
-6.28451
-19.9681
-20.4541
-20.4115
-6.9007
-7.7313
-8.64371
-21.1284
-21.3672
-22.4878
-22.5955
-19.9289
-18.1272
-16.4374
-15.0147
-13.9151
-13.0539
-21.7854
-23.7079
-25.7328
-28.5832
-29.1917
-29.6562
-30.0344
-30.3476
-30.5791
-30.6154
-30.2602
-27.8883
-26.2019
-27.3085
-24.4307
-28.6478
-9.52926
-10.3205
-10.3554
-12.7102
-11.1387
-19.9835
-19.9344
-22.6066
-16.9516
-18.0856
-17.9937
-18.4686
-18.9571
-19.1804
-0.193094
-1.0162
-1.22621
-1.08851
-1.88272
-1.49972
-2.29334
-2.92725
-3.24903
-3.97722
-4.69279
-5.78633
-6.28451
-19.9681
-20.4541
-20.4115
-6.9007
-7.7313
-8.64371
-21.1284
-21.3672
-22.4878
-22.5955
-24.4307
-30.5791
-30.6154
-30.2602
-26.2019
-27.3085
-28.6478
-30.3476
-30.0344
-29.6562
-28.5832
-29.1917
-27.8883
-25.7328
-23.7079
-21.7854
-19.9289
-18.1272
-16.4374
-15.0147
-13.9151
-13.0539
-9.52926
-10.3205
-10.3554
-12.7102
-11.1387
-19.9835
-19.9344
-22.7115
-17.4981
-18.595
-18.3363
-18.8484
-19.304
-19.6299
-0.793017
-0.947065
-1.49141
-1.6491
-1.80333
-2.40637
-2.97005
-3.93871
-4.86957
-4.73606
-5.2587
-6.14037
-20.5198
-21.0241
-20.9713
-6.73507
-7.55025
-8.44913
-21.8178
-22.219
-23.1994
-20.7486
-18.8501
-17.0991
-15.5941
-14.3583
-13.3568
-12.3198
-22.7478
-24.8475
-27.0833
-30.1678
-30.7204
-31.1176
-31.3999
-31.6474
-31.8195
-31.8967
-31.8797
-31.8179
-29.4611
-25.4733
-24.1577
-27.7477
-28.6964
-29.8145
-9.16593
-9.6436
-11.6223
-11.3985
-10.245
-20.5873
-20.592
-22.7115
-17.4981
-18.595
-18.3363
-18.8484
-19.304
-19.6299
-0.793017
-0.947065
-1.49141
-1.6491
-1.80333
-2.40637
-2.97005
-3.93871
-4.86957
-4.73606
-5.2587
-6.14037
-20.5198
-21.0241
-20.9713
-6.73507
-7.55025
-8.44913
-21.8178
-22.219
-23.1994
-31.8195
-31.8967
-31.8797
-31.8179
-25.4733
-24.1577
-27.7477
-28.6964
-29.8145
-31.6474
-31.3999
-31.1176
-30.1678
-30.7204
-29.4611
-27.0833
-24.8475
-22.7478
-20.7486
-18.8501
-17.0991
-15.5941
-14.3583
-13.3568
-12.3198
-9.16593
-9.6436
-11.6223
-11.3985
-10.245
-20.5873
-20.592
-23.1976
-17.5324
-17.8875
-18.8605
-18.9323
-19.2772
-19.5739
-20.0456
-0.872973
-0.890694
-1.25743
-1.56143
-1.91607
-2.48157
-3.20297
-3.98049
-4.67436
-4.96868
-5.47687
-6.00803
-21.1106
-21.69
-21.4987
-6.67421
-7.40823
-8.2677
-22.1993
-23.5238
-21.5448
-19.4835
-17.6119
-16.015
-14.6903
-13.5971
-12.6051
-11.641
-23.7426
-26.0815
-28.5925
-31.9637
-32.4182
-32.7089
-32.8786
-33.0145
-33.0778
-33.0673
-32.9338
-32.5221
-32.0741
-31.2747
-25.7634
-26.8048
-24.609
-28.0999
-28.9228
-8.96212
-9.03355
-9.27531
-9.94533
-10.5407
-21.1677
-21.4283
-23.1976
-17.5324
-17.8875
-18.8605
-18.9323
-19.2772
-19.5739
-20.0456
-0.872973
-0.890694
-1.25743
-1.56143
-1.91607
-2.48157
-3.20297
-3.98049
-4.67436
-4.96868
-5.47687
-6.00803
-21.1106
-21.69
-21.4987
-6.67421
-7.40823
-8.2677
-22.1993
-23.5238
-33.0778
-33.0673
-32.9338
-32.5221
-32.0741
-25.7634
-26.8048
-24.609
-28.0999
-28.9228
-33.0145
-32.8786
-32.7089
-31.9637
-32.4182
-31.2747
-28.5925
-26.0815
-23.7426
-21.5448
-19.4835
-17.6119
-16.015
-14.6903
-13.5971
-12.6051
-11.641
-8.96212
-9.03355
-9.27531
-9.94533
-10.5407
-21.1677
-21.4283
-23.459
-23.5159
-17.8645
-18.8805
-19.3057
-19.6665
-20.0348
-20.2871
-0.668279
-1.01293
-1.42986
-1.89668
-2.51888
-3.20161
-3.80174
-4.51821
-4.87733
-5.43821
-6.03659
-21.6428
-22.3202
-22.2638
-6.67864
-7.28232
-8.13705
-22.8513
-22.3909
-20.117
-18.0673
-16.3331
-14.9342
-13.7838
-12.8373
-11.9588
-10.9597
-24.8273
-27.4521
-30.3106
-34.0273
-34.3408
-34.4662
-34.484
-34.4417
-34.3943
-34.2699
-34.0184
-33.5853
-33.2045
-33.7742
-29.5475
-33.3855
-25.006
-23.9121
-26.4281
-27.5164
-28.448
-8.67205
-7.66953
-8.55903
-7.79989
-9.38812
-9.8254
-21.5657
-22.1372
-23.459
-23.5159
-17.8645
-18.8805
-19.3057
-19.6665
-20.0348
-20.2871
-0.668279
-1.01293
-1.42986
-1.89668
-2.51888
-3.20161
-3.80174
-4.51821
-4.87733
-5.43821
-6.03659
-21.6428
-22.3202
-22.2638
-6.67864
-7.28232
-8.13705
-22.8513
-34.3943
-34.2699
-34.0184
-33.5853
-33.2045
-33.7742
-29.5475
-25.006
-23.9121
-26.4281
-27.5164
-28.448
-34.4417
-34.484
-34.4662
-34.0273
-34.3408
-33.3855
-30.3106
-27.4521
-24.8273
-22.3909
-20.117
-18.0673
-16.3331
-14.9342
-13.7838
-12.8373
-11.9588
-10.9597
-8.67205
-7.66953
-8.55903
-7.79989
-9.38812
-9.8254
-21.5657
-22.1372
-24.0484
-17.9309
-19.1013
-19.5388
-19.9595
-20.3433
-20.5678
-0.450914
-0.767359
-1.21106
-1.79806
-2.44196
-3.0341
-3.55963
-4.28055
-4.69071
-5.30349
-5.92904
-22.2724
-23.0085
-22.7633
-6.44636
-7.43925
-23.3259
-20.7954
-18.5003
-16.5982
-15.1245
-13.9611
-13.0636
-12.2912
-11.4149
-10.2919
-26.0236
-28.9734
-32.3036
-36.4772
-36.5469
-36.395
-36.1787
-35.9408
-35.7505
-35.5314
-35.1768
-34.6732
-34.1828
-34.0465
-34.4683
-31.6597
-30.3728
-29.2322
-35.8934
-24.7815
-23.6344
-25.9233
-27.1282
-28.2467
-7.18865
-7.91753
-6.6859
-8.1218
-8.58318
-9.08148
-22.1675
-21.1764
-22.7117
-24.0484
-17.9309
-19.1013
-19.5388
-19.9595
-20.3433
-20.5678
-0.450914
-0.767359
-1.21106
-1.79806
-2.44196
-3.0341
-3.55963
-4.28055
-4.69071
-5.30349
-5.92904
-22.2724
-23.0085
-22.7633
-6.44636
-7.43925
-35.7505
-35.5314
-35.1768
-34.6732
-34.1828
-34.0465
-34.4683
-31.6597
-30.3728
-29.2322
-24.7815
-23.6344
-25.9233
-27.1282
-28.2467
-35.9408
-36.1787
-36.395
-36.4772
-36.5469
-32.3036
-35.8934
-28.9734
-26.0236
-23.3259
-20.7954
-18.5003
-16.5982
-15.1245
-13.9611
-13.0636
-12.2912
-11.4149
-10.2919
-7.18865
-7.91753
-6.6859
-8.1218
-8.58318
-9.08148
-22.1675
-21.1764
-22.7117
-24.3301
-18.231
-19.5584
-19.5677
-20.2247
-20.6761
-0.226421
-0.442073
-0.945608
-1.7362
-2.25219
-2.81023
-3.2212
-3.99478
-4.42427
-5.13242
-5.77645
-23.0788
-23.918
-6.22975
-24.2999
-21.5016
-18.8632
-16.7448
-15.2605
-14.1333
-13.2788
-12.5762
-11.7916
-10.8215
-9.61281
-27.2272
-30.6615
-34.6934
-39.3901
-39.1395
-38.5488
-37.9967
-37.5051
-37.1368
-36.8271
-36.4169
-35.8979
-35.2941
-34.8838
-34.7611
-32.7329
-34.9876
-30.7632
-29.7844
-28.8953
-39.01
-24.9611
-25.7498
-26.7508
-27.8188
-6.16308
-6.7903
-7.16671
-7.34717
-7.81696
-8.20824
-23.0625
-21.7529
-22.8032
-24.3301
-18.231
-19.5584
-19.5677
-20.2247
-20.6761
-0.226421
-0.442073
-0.945608
-1.7362
-2.25219
-2.81023
-3.2212
-3.99478
-4.42427
-5.13242
-5.77645
-23.0788
-23.918
-6.22975
-37.1368
-36.8271
-36.4169
-35.8979
-35.2941
-34.8838
-34.7611
-32.7329
-34.9876
-30.7632
-29.7844
-28.8953
-24.9611
-25.7498
-26.7508
-27.8188
-37.5051
-37.9967
-38.5488
-39.3901
-39.1395
-34.6934
-30.6615
-39.01
-27.2272
-24.2999
-21.5016
-18.8632
-16.7448
-15.2605
-14.1333
-13.2788
-12.5762
-11.7916
-10.8215
-9.61281
-6.16308
-6.7903
-7.16671
-7.34717
-7.81696
-8.20824
-23.0625
-21.7529
-22.8032
-24.3767
-18.6622
-19.9912
-19.8537
-20.5458
-21.2125
0.0425782
-0.0988969
-0.710132
-1.73136
-2.25236
-2.44468
-2.85076
-3.63466
-4.0687
-4.87387
-5.60157
-24.0964
-25.0044
-22.3513
-19.0931
-16.6665
-15.3057
-14.2034
-13.3702
-12.6835
-11.9245
-11.0913
-10.4058
-8.75684
-28.2925
-32.5408
-37.7608
-42.8013
-42.2966
-41.1308
-39.9263
-39.0608
-38.4555
-38.1004
-37.7044
-37.1747
-36.4669
-35.8756
-35.4693
-34.8295
-31.9062
-33.2356
-35.3724
-30.4995
-29.5849
-28.4822
-43.246
-25.3189
-25.7691
-26.5882
-27.5039
-5.34511
-5.79346
-6.18913
-6.42117
-6.23093
-7.29116
-7.67645
-23.6247
-22.1551
-22.9541
-24.3767
-18.6622
-19.9912
-19.8537
-20.5458
-21.2125
0.0425782
-0.0988969
-0.710132
-1.73136
-2.25236
-2.44468
-2.85076
-3.63466
-4.0687
-4.87387
-5.60157
-24.0964
-38.4555
-38.1004
-37.7044
-37.1747
-36.4669
-35.8756
-35.4693
-34.8295
-31.9062
-33.2356
-35.3724
-30.4995
-29.5849
-28.4822
-25.3189
-25.7691
-26.5882
-27.5039
-39.0608
-39.9263
-41.1308
-42.8013
-42.2966
-37.7608
-32.5408
-28.2925
-43.246
-25.0044
-22.3513
-19.0931
-16.6665
-15.3057
-14.2034
-13.3702
-12.6835
-11.9245
-11.0913
-10.4058
-8.75684
-5.34511
-5.79346
-6.18913
-6.42117
-6.23093
-7.29116
-7.67645
-23.6247
-22.1551
-22.9541
-24.861
-18.7034
-19.0923
-20.2489
-20.4394
-20.9861
-21.7151
0.317904
0.26157
-0.126903
-1.17239
-1.44998
-2.07452
-2.47624
-3.25625
-3.69524
-4.5208
-25.1093
-22.2057
-20.5683
-16.3894
-15.3761
-14.0854
-13.2569
-12.6255
-11.9246
-10.9596
-9.82671
-9.07061
-8.7246
-7.33336
-29.0691
-34.5999
-42.2308
-47.1489
-45.1039
-44.817
-41.9659
-40.6283
-39.7083
-39.2347
-38.8961
-38.4335
-37.6585
-36.8583
-36.4996
-36.6189
-35.0878
-31.9215
-32.7715
-33.532
-35.1595
-35.0677
-29.1495
-29.7391
-28.2203
-50.3039
-23.8428
-26.2848
-26.525
-27.3915
-4.91921
-5.27131
-5.66269
-6.15937
-6.08925
-5.96686
-6.84963
-22.6447
-23.4132
-24.861
-18.7034
-19.0923
-20.2489
-20.4394
-20.9861
-21.7151
0.317904
0.26157
-0.126903
-1.17239
-1.44998
-2.07452
-2.47624
-3.25625
-3.69524
-4.5208
-39.7083
-39.2347
-38.8961
-38.4335
-37.6585
-36.8583
-36.4996
-36.6189
-35.0878
-31.9215
-32.7715
-33.532
-35.1595
-35.0677
-29.1495
-29.7391
-28.2203
-23.8428
-26.2848
-26.525
-27.3915
-40.6283
-41.9659
-44.817
-47.1489
-45.1039
-42.2308
-34.5999
-29.0691
-25.1093
-50.3039
-22.2057
-20.5683
-16.3894
-15.3761
-14.0854
-13.2569
-12.6255
-11.9246
-10.9596
-9.82671
-9.07061
-8.7246
-7.33336
-4.91921
-5.27131
-5.66269
-6.15937
-6.08925
-5.96686
-6.84963
-22.6447
-23.4132
-25.117
-25.3367
-19.1171
-20.2291
-20.8044
-21.3771
-22.1523
0.329451
-0.252741
-0.466382
-1.13639
-0.927606
-1.51253
-1.77257
-2.12802
-2.8828
-3.28382
-4.09714
-24.523
-21.1661
-18.1813
-16.9855
-13.9503
-13.8535
-13.2961
-12.7554
-12.3367
-11.8553
-10.9969
-9.7594
-8.17901
-7.97393
-6.21576
-6.79477
-6.45264
-29.06
-35.7465
-51.1682
-53.1761
-47.8126
-45.4687
-45.6086
-42.3297
-40.927
-40.121
-39.6715
-39.5603
-38.9469
-37.8464
-37.1037
-36.8403
-37.1344
-33.0813
-29.9072
-33.8168
-33.3032
-37.6795
-36.1503
-35.0596
-28.8162
-29.1544
-28.1502
-61.8612
-24.1788
-24.9936
-27.0546
-27.4905
-4.40959
-4.7101
-4.96371
-4.89446
-5.43435
-4.98866
-23.0869
-23.7806
-25.117
-25.3367
-19.1171
-20.2291
-20.8044
-21.3771
-22.1523
0.329451
-0.252741
-0.466382
-1.13639
-0.927606
-1.51253
-1.77257
-2.12802
-2.8828
-3.28382
-4.09714
-40.927
-40.121
-39.6715
-39.5603
-38.9469
-37.8464
-37.1037
-36.8403
-37.1344
-33.0813
-29.9072
-33.8168
-33.3032
-37.6795
-36.1503
-35.0596
-28.8162
-29.1544
-28.1502
-24.1788
-24.9936
-27.0546
-27.4905
-42.3297
-45.6086
-45.4687
-53.1761
-47.8126
-51.1682
-35.7465
-29.06
-24.523
-21.1661
-61.8612
-18.1813
-16.9855
-13.9503
-13.8535
-13.2961
-12.7554
-12.3367
-11.8553
-10.9969
-9.7594
-8.17901
-7.97393
-6.21576
-6.79477
-6.45264
-4.40959
-4.7101
-4.96371
-4.89446
-5.43435
-4.98866
-23.0869
-23.7806
-26.1209
-19.2165
-20.3784
-21.0851
-21.6967
-22.5773
0.112285
0.184164
-0.0394978
-0.919148
-1.18662
-1.18829
-1.47068
-1.74739
-2.49289
-2.79477
-3.60009
-22.3032
-19.9038
-17.6284
-16.18
-13.3563
-12.4319
-12.0703
-11.8591
-11.7231
-11.518
-10.9569
-10.1206
-9.0394
-8.19593
-5.45959
-5.22601
-5.09528
-6.23562
-6.23199
-6.0618
-25.2626
-32.4178
-58.5286
-60.4681
-51.3864
-47.2005
-45.3198
-44.2346
-44.3707
-42.2563
-40.929
-40.0784
-39.7081
-40.4992
-38.9571
-38.0303
-37.0958
-36.1851
-38.4413
-30.3583
-31.3673
-33.9642
-29.7182
-34.3844
-33.6458
-37.0995
-36.9966
-36.0725
-34.7316
-28.7052
-29.243
-28.0606
-90.7915
-24.2561
-25.7744
-27.2556
-3.88925
-4.15128
-4.31204
-4.49886
-3.93558
-23.5046
-26.1209
-19.2165
-20.3784
-21.0851
-21.6967
-22.5773
0.112285
0.184164
-0.0394978
-0.919148
-1.18662
-1.18829
-1.47068
-1.74739
-2.49289
-2.79477
-3.60009
-42.2563
-40.929
-40.0784
-39.7081
-40.4992
-38.9571
-38.0303
-37.0958
-36.1851
-38.4413
-30.3583
-31.3673
-33.9642
-29.7182
-34.3844
-33.6458
-37.0995
-36.9966
-36.0725
-34.7316
-28.7052
-29.243
-28.0606
-24.2561
-25.7744
-27.2556
-44.3707
-44.2346
-45.3198
-47.2005
-60.4681
-51.3864
-58.5286
-32.4178
-25.2626
-22.3032
-19.9038
-17.6284
-90.7915
-16.18
-13.3563
-12.4319
-12.0703
-11.8591
-11.7231
-11.518
-10.9569
-10.1206
-9.0394
-8.19593
-5.45959
-5.22601
-5.09528
-6.23562
-6.23199
-6.0618
-3.88925
-4.15128
-4.31204
-4.49886
-3.93558
-23.5046
-26.6625