/*--------------------------------*- C++ -*----------------------------------*\
| =========                 |                                                 |
| \\      /  F ield         | OpenFOAM: The Open Source CFD Toolbox           |
|  \\    /   O peration     | Version:  2.4.x                                 |
|   \\  /    A nd           | Web:      www.OpenFOAM.org                      |
|    \\/     M anipulation  |                                                 |
\*---------------------------------------------------------------------------*/
FoamFile
{
    version     2.0;
    format      ascii;
    class       volScalarField;
    location    "10";
    object      T;
}
// * * * * * * * * * * * * * * * * * * * * * * * * * * * * * * * * * * * * * //

dimensions      [0 0 0 1 0 0 0];

internalField   nonuniform List<scalar> 
6768
(
19.9998
19.9998
19.9991
19.9991
19.9991
19.9991
19.9981
19.9959
19.998
19.9981
19.9959
19.998
19.9966
19.9906
19.9909
19.9969
19.9966
19.9906
19.9909
19.9969
19.996
19.9854
19.977
19.9868
19.9964
19.996
19.9854
19.977
19.9868
19.9964
19.9949
19.9848
19.9654
19.9721
19.9558
19.9868
19.9954
19.9949
19.9848
19.9654
19.9721
19.9558
19.9868
19.9954
19.993
19.9768
19.9502
19.9369
19.9796
19.9571
19.9318
19.9935
19.993
19.9768
19.9502
19.9369
19.9796
19.9571
19.9318
19.9935
19.9916
19.9706
19.9383
19.9179
19.9036
19.9727
19.9431
19.9048
19.992
19.9916
19.9706
19.9383
19.9179
19.9036
19.9727
19.9431
19.9048
19.992
19.9904
19.9654
19.928
19.9028
19.8802
19.8585
19.9675
19.9365
19.9161
19.8706
19.9905
19.9904
19.9654
19.928
19.9028
19.8802
19.8585
19.9675
19.9365
19.9161
19.8706
19.9905
19.9893
19.9607
19.918
19.8873
19.8683
19.8371
19.8186
19.8011
19.9604
19.9504
19.8972
19.842
19.9883
19.9893
19.9607
19.918
19.8873
19.8683
19.8371
19.8186
19.8011
19.9604
19.9504
19.8972
19.842
19.9883
19.9886
19.9566
19.9093
19.8701
19.8418
19.7911
19.7821
19.7596
19.7461
19.9859
19.9415
19.8798
19.8156
19.9886
19.9566
19.9093
19.8701
19.8418
19.7911
19.7821
19.7596
19.7461
19.9859
19.9415
19.8798
19.8156
19.9892
19.9547
19.9059
19.8553
19.8172
19.7622
19.7376
19.7475
19.716
19.697
19.6896
19.9837
19.9335
19.8637
19.7907
19.9892
19.9547
19.9059
19.8553
19.8172
19.7622
19.7376
19.7475
19.716
19.697
19.6896
19.9837
19.9335
19.8637
19.7907
19.9883
19.9609
19.9474
19.8879
19.8396
19.7951
19.7307
19.7009
19.7149
19.673
19.6456
19.6328
19.6376
19.982
19.9276
19.8499
19.762
19.9883
19.9609
19.9474
19.8879
19.8396
19.7951
19.7307
19.7009
19.7149
19.673
19.6456
19.6328
19.6376
19.982
19.9276
19.8499
19.762
19.9853
19.9406
19.8778
19.8218
19.7719
19.6996
19.6608
19.6934
19.6313
19.5947
19.5726
19.5694
19.5867
19.9819
19.9331
19.902
19.8047
19.7187
19.9853
19.9406
19.8778
19.8218
19.7719
19.6996
19.6608
19.6934
19.6313
19.5947
19.5726
19.5694
19.5867
19.9819
19.9331
19.902
19.8047
19.7187
19.9843
19.939
19.877
19.8077
19.7493
19.6701
19.6218
19.6464
19.5743
19.5424
19.5118
19.4954
19.5056
19.5393
19.9784
19.9692
19.8691
19.7501
19.669
19.9843
19.939
19.877
19.8077
19.7493
19.6701
19.6218
19.6464
19.5743
19.5424
19.5118
19.4954
19.5056
19.5393
19.9784
19.9692
19.8691
19.7501
19.669
19.9855
19.9489
19.9334
19.8597
19.793
19.7276
19.6413
19.585
19.6054
19.5312
19.49
19.4526
19.4233
19.4058
19.4519
19.4954
19.9586
19.8208
19.661
19.6318
19.9855
19.9489
19.9334
19.8597
19.793
19.7276
19.6413
19.585
19.6054
19.5312
19.49
19.4526
19.4233
19.4058
19.4519
19.4954
19.9586
19.8208
19.661
19.6318
19.9848
19.9822
19.9296
19.8578
19.7775
19.7061
19.613
19.5492
19.5746
19.497
19.4442
19.3972
19.3579
19.3263
19.3666
19.2787
19.4016
19.4517
19.9471
19.7568
19.4056
19.6188
19.6155
19.9848
19.9822
19.9296
19.8578
19.7775
19.7061
19.613
19.5492
19.5746
19.497
19.4442
19.3972
19.3579
19.3263
19.3666
19.2787
19.4016
19.4517
19.9471
19.7568
19.4056
19.6188
19.6155
19.9831
19.9403
19.922
19.8373
19.7627
19.6851
19.5865
19.5139
19.5548
19.4701
19.4041
19.3458
19.2961
19.2568
19.228
19.3013
19.1951
19.1375
19.3476
19.4076
19.9544
19.9558
20.1652
19.7191
19.6735
19.6211
19.9831
19.9403
19.922
19.8373
19.7627
19.6851
19.5865
19.5139
19.5548
19.4701
19.4041
19.3458
19.2961
19.2568
19.228
19.3013
19.1951
19.1375
19.3476
19.4076
19.9544
19.9558
20.1652
19.7191
19.6735
19.6211
19.9822
19.9786
19.9134
19.8255
19.7494
19.6682
19.5672
19.4799
19.5443
19.45
19.3696
19.2987
19.2371
19.186
19.1478
19.2373
19.1213
19.0887
19.0321
18.9988
19.2934
19.3622
19.9421
19.8065
19.7132
19.6314
19.9822
19.9786
19.9134
19.8255
19.7494
19.6682
19.5672
19.4799
19.5443
19.45
19.3696
19.2987
19.2371
19.186
19.1478
19.2373
19.1213
19.0887
19.0321
18.9988
19.2934
19.3622
19.9421
19.8065
19.7132
19.6314
19.9768
19.9086
19.8172
19.7351
19.6692
19.6344
19.5238
19.4418
19.54
19.4383
19.3412
19.2564
19.1824
19.1189
19.0678
19.1721
19.0417
18.9958
18.942
18.9032
18.8574
19.2378
19.3145
19.9531
19.8436
19.7404
19.6439
19.9768
19.9086
19.8172
19.7351
19.6692
19.6344
19.5238
19.4418
19.54
19.4383
19.3412
19.2564
19.1824
19.1189
19.0678
19.1721
19.0417
18.9958
18.942
18.9032
18.8574
19.2378
19.3145
19.9531
19.8436
19.7404
19.6439
19.9759
19.9071
19.8161
19.7214
19.6177
19.5012
19.4005
19.5425
19.4499
19.325
19.2186
19.1314
19.0562
18.9923
19.1059
18.9657
18.9013
18.8569
18.8079
18.7816
18.7499
18.6839
19.1814
19.2659
19.9613
19.8675
19.7705
19.651
19.9759
19.9071
19.8161
19.7214
19.6177
19.5012
19.4005
19.5425
19.4499
19.325
19.2186
19.1314
19.0562
18.9923
19.1059
18.9657
18.9013
18.8569
18.8079
18.7816
18.7499
18.6839
19.1814
19.2659
19.9613
19.8675
19.7705
19.651
19.9765
19.9098
19.8309
19.7259
19.6221
19.5802
19.454
19.359
19.5416
19.4185
19.2699
19.1749
19.0807
18.996
18.921
19.0416
18.8951
18.8176
18.7771
18.7103
18.664
18.6609
18.5818
18.4987
19.1258
19.2168
19.9694
19.8996
19.8804
19.7638
19.652
19.9765
19.9098
19.8309
19.7259
19.6221
19.5802
19.454
19.359
19.5416
19.4185
19.2699
19.1749
19.0807
18.996
18.921
19.0416
18.8951
18.8176
18.7771
18.7103
18.664
18.6609
18.5818
18.4987
19.1258
19.2168
19.9694
19.8996
19.8804
19.7638
19.652
19.9762
19.9065
19.8046
19.698
19.6804
19.566
19.417
19.3131
19.5465
19.4988
19.361
19.2168
19.1205
19.0261
18.9359
18.8527
18.9803
18.8295
18.7422
18.7026
18.6248
18.5471
18.5831
18.497
18.4115
18.2874
18.3463
19.0715
19.1683
19.9712
19.9688
19.8809
19.7717
19.6356
19.9762
19.9065
19.8046
19.698
19.6804
19.566
19.417
19.3131
19.5465
19.4988
19.361
19.2168
19.1205
19.0261
18.9359
18.8527
18.9803
18.8295
18.7422
18.7026
18.6248
18.5471
18.5831
18.497
18.4115
18.2874
18.3463
19.0715
19.1683
19.9712
19.9688
19.8809
19.7717
19.6356
19.9746
19.8973
19.7907
19.7871
19.694
19.6701
19.5234
19.3779
19.2708
19.6033
19.4616
19.3183
19.1701
19.0667
18.9683
18.8742
18.7854
18.9219
18.7681
18.6739
18.6298
18.5478
18.4659
18.5139
18.4177
18.33
18.2538
18.0946
18.1182
18.1751
18.3209
19.0195
19.1224
19.9713
19.9015
19.8736
19.7415
19.9746
19.8973
19.7907
19.7871
19.694
19.6701
19.5234
19.3779
19.2708
19.6033
19.4616
19.3183
19.1701
19.0667
18.9683
18.8742
18.7854
18.9219
18.7681
18.6739
18.6298
18.5478
18.4659
18.5139
18.4177
18.33
18.2538
18.0946
18.1182
18.1751
18.3209
19.0195
19.1224
19.9713
19.9015
19.8736
19.7415
19.9729
19.8928
19.8914
19.7863
19.797
19.761
19.6274
19.488
19.3445
19.2307
19.7209
19.5772
19.4306
19.2813
19.1276
19.0159
18.9109
18.8115
18.7177
18.8662
18.7088
18.6113
18.5564
18.4697
18.3906
18.4543
18.3473
18.2422
18.1566
17.9344
17.9841
17.9147
17.9949
17.9244
18.2268
18.0578
18.9695
19.0789
19.9705
19.9652
19.8608
19.9729
19.8928
19.8914
19.7863
19.797
19.761
19.6274
19.488
19.3445
19.2307
19.7209
19.5772
19.4306
19.2813
19.1276
19.0159
18.9109
18.8115
18.7177
18.8662
18.7088
18.6113
18.5564
18.4697
18.3906
18.4543
18.3473
18.2422
18.1566
17.9841
17.9147
17.9344
17.9949
17.9244
18.2268
18.0578
18.9695
19.0789
19.9705
19.9652
19.8608
19.9721
19.9719
19.8928
19.8863
19.8731
19.7401
19.6037
19.4641
19.3186
19.1951
19.8523
19.7055
19.5561
19.403
19.2472
19.0883
18.9685
18.8557
18.7495
18.6498
18.8118
18.6495
18.5484
18.4827
18.3895
18.3035
18.3854
18.3094
18.1603
18.0612
17.76
17.7638
17.8701
17.7964
17.8727
17.8033
18.1307
17.9497
18.9216
19.0388
19.9625
19.9721
19.9719
19.8928
19.8863
19.8731
19.7401
19.6037
19.4641
19.3186
19.1951
19.8523
19.7055
19.5561
19.403
19.2472
19.0883
18.9685
18.8557
18.7495
18.6498
18.8118
18.6495
18.5484
18.4827
18.3895
18.3035
18.3854
18.3094
18.1603
18.0612
17.8701
17.7964
17.76
17.7638
17.8727
17.8033
18.1307
17.9497
18.9216
19.0388
19.9625
19.9713
19.9687
19.9663
19.8653
19.7293
19.5921
19.4516
19.3001
19.1641
19.9608
19.8466
19.6953
19.5377
19.3746
19.2142
19.0514
18.9246
18.8036
18.6896
18.5827
18.7589
18.5909
18.4823
18.4103
18.3098
18.2162
18.3082
18.2146
18.04
17.9569
17.577
17.6015
17.6061
17.7571
17.6694
17.7567
17.6735
18.0355
17.8455
18.8763
19.0013
19.9713
19.9687
19.9663
19.8653
19.7293
19.5921
19.4516
19.3001
19.1641
19.9608
19.8466
19.6953
19.5377
19.3746
19.2142
19.0514
18.9246
18.8036
18.6896
18.5827
18.7589
18.5909
18.4823
18.4103
18.3098
18.2162
18.3082
18.2146
18.04
17.9569
17.7571
17.6694
17.6015
17.577
17.6061
17.7567
17.6735
18.0355
17.8455
18.8763
19.0013
19.9648
19.8621
19.7274
19.5937
19.457
19.2756
19.1338
19.9602
19.8467
19.6952
19.5094
19.3438
19.1823
19.0164
18.8835
18.7551
18.6329
18.5179
18.7084
18.535
18.4169
18.3402
18.2317
18.13
18.2369
18.129
17.9454
17.849
17.3808
17.3792
17.4531
17.4573
17.6499
17.5518
17.5542
17.6457
17.9419
17.7439
18.8328
18.9636
19.9648
19.8621
19.7274
19.5937
19.457
19.2756
19.1338
19.9602
19.8467
19.6952
19.5094
19.3438
19.1823
19.0164
18.8835
18.7551
18.6329
18.5179
18.7084
18.535
18.4169
18.3402
18.2317
18.13
18.2369
18.129
17.9454
17.849
17.6499
17.5518
17.4531
17.3792
17.3808
17.4573
17.6457
17.5542
17.9419
17.7439
18.8328
18.9636
19.9645
19.8637
19.7369
19.6223
19.5826
19.4143
19.241
19.1007
19.9635
19.8698
19.8243
19.6427
19.4726
19.3156
19.1518
18.9829
18.8446
18.7095
18.5795
18.4561
18.6595
18.481
18.3558
18.273
18.1559
18.0457
18.1706
18.0519
17.8619
17.7527
17.1935
17.1124
17.1966
17.3396
17.3469
17.5513
17.4421
17.4397
17.535
17.8507
17.6447
18.7897
18.9257
19.9645
19.8637
19.7369
19.6223
19.5826
19.4143
19.241
19.1007
19.9635
19.8698
19.8243
19.6427
19.4726
19.3156
19.1518
18.9829
18.8446
18.7095
18.5795
18.4561
18.6595
18.481
18.3558
18.273
18.1559
18.0457
18.1706
18.0519
17.8619
17.7527
17.5513
17.4421
17.3396
17.1966
17.1124
17.1935
17.3469
17.535
17.4397
17.8507
17.6447
18.7897
18.9257
19.9653
19.8702
19.7505
19.7173
19.5566
19.384
19.2097
19.066
19.9605
19.9495
19.7935
19.6012
19.4478
19.2866
19.1224
18.9514
18.8075
18.6663
18.5289
18.3974
18.6117
18.4286
18.2967
18.2093
18.0834
17.9641
18.1067
17.9802
17.7858
17.6659
17.164
16.9794
16.9126
16.9247
16.7941
16.9991
17.1463
17.2212
17.234
17.464
17.3374
17.3121
17.4254
17.7629
17.55
18.7479
18.8884
19.9653
19.8702
19.7505
19.7173
19.5566
19.384
19.2097
19.066
19.9605
19.9495
19.7935
19.6012
19.4478
19.2866
19.1224
18.9514
18.8075
18.6663
18.5289
18.3974
18.6117
18.4286
18.2967
18.2093
18.0834
17.9641
18.1067
17.9802
17.7858
17.6659
17.464
17.3374
17.2212
17.1463
16.9247
16.9991
16.7941
16.9126
16.9794
17.164
17.234
17.4254
17.3121
17.7629
17.55
18.7479
18.8884
19.9694
19.8943
19.8649
19.8587
19.7184
19.5351
19.3586
19.1822
19.0329
19.9416
19.7646
19.5616
19.4991
19.4043
19.2599
19.0972
18.923
18.7723
18.625
18.4812
18.3421
18.5658
18.3786
18.2399
18.1489
18.0147
17.8865
18.0456
17.912
17.714
17.5893
17.0546
16.8633
16.743
16.6328
16.6531
16.786
16.508
16.9622
17.0996
17.0569
17.2517
17.3958
17.1911
17.3207
17.6815
17.4666
18.7072
18.8524
19.9694
19.8943
19.8649
19.8587
19.7184
19.5351
19.3586
19.1822
19.0329
19.9416
19.7646
19.5616
19.4991
19.4043
19.2599
19.0972
18.923
18.7723
18.625
18.4812
18.3421
18.5658
18.3786
18.2399
18.1489
18.0147
17.8865
18.0456
17.912
17.714
17.5893
17.3958
17.2517
17.0996
16.9622
16.6531
16.786
16.508
16.6328
16.743
16.8633
17.0546
17.0569
17.3207
17.1911
17.6815
17.4666
18.7072
18.8524
19.9686
19.964
19.9662
19.8817
19.8478
19.6832
19.5109
19.3361
19.1576
19.0024
19.9365
19.7328
19.3887
19.6597
19.5337
19.4011
19.2476
19.0788
18.8983
18.7392
18.5852
18.4352
18.2894
18.5213
18.3295
18.1853
18.0917
17.9503
17.8145
17.986
17.846
17.643
17.5162
16.7929
16.623
16.4851
16.3561
16.3793
16.5294
16.6897
16.2261
16.8503
17.02
16.969
17.222
17.3221
17.0641
17.234
17.6096
17.4046
18.6675
18.8185
19.9686
19.964
19.9662
19.8817
19.8478
19.6832
19.5109
19.3361
19.1576
19.0024
19.9365
19.7328
19.3887
19.6597
19.5337
19.4011
19.2476
19.0788
18.8983
18.7392
18.5852
18.4352
18.2894
18.5213
18.3295
18.1853
18.0917
17.9503
17.8145
17.986
17.846
17.643
17.5162
17.3221
17.222
17.02
16.8503
16.6897
16.3793
16.5294
16.2261
16.3561
16.4851
16.623
16.7929
16.969
17.0641
17.234
17.6096
17.4046
18.6675
18.8185
19.9649
19.9588
19.8344
19.6666
19.4943
19.3178
19.1365
18.9748
19.9409
19.9369
20.132
19.9246
19.736
19.5672
19.4107
19.2441
19.065
18.8763
18.7086
18.5472
18.391
18.2389
18.4772
18.2811
18.1315
18.0365
17.8885
17.7471
17.9272
17.7811
17.5713
17.4367
16.5342
16.7589
16.3606
16.212
16.0729
16.0971
16.2569
16.4194
16.5862
15.9372
16.7628
16.9619
17.139
17.2197
16.9519
17.216
17.5421
17.3403
18.6293
18.7866
19.9649
19.9588
19.8344
19.6666
19.4943
19.3178
19.1365
18.9748
19.9409
19.9369
20.132
19.9246
19.736
19.5672
19.4107
19.2441
19.065
18.8763
18.7086
18.5472
18.391
18.2389
18.4772
18.2811
18.1315
18.0365
17.8885
17.7471
17.9272
17.7811
17.5713
17.4367
17.2197
17.139
16.9619
16.7628
16.5862
16.4194
16.0971
16.2569
15.9372
16.0729
16.212
16.3606
16.5342
16.7589
16.9519
17.216
17.5421
17.3403
18.6293
18.7866
19.9563
19.8282
19.6572
19.4823
19.3028
19.1175
18.9496
19.9346
19.7713
19.597
19.4274
19.2434
19.0531
18.8567
18.6803
18.5114
18.3485
18.1902
18.4346
18.2336
18.0784
17.983
17.828
17.6806
17.869
17.7168
17.5017
17.3561
16.246
16.4339
16.6193
16.0781
15.9246
15.7787
15.8037
15.9711
16.1395
16.3116
16.4927
15.6368
16.6919
17.1327
16.931
17.0123
17.1476
16.7618
17.4685
17.2486
18.5928
18.7566
19.9563
19.8282
19.6572
19.4823
19.3028
19.1175
18.9496
19.9346
19.7713
19.597
19.4274
19.2434
19.0531
18.8567
18.6803
18.5114
18.3485
18.1902
18.4346
18.2336
18.0784
17.983
17.828
17.6806
17.869
17.7168
17.5017
17.3561
17.1327
16.931
16.6919
16.4927
16.3116
16.1395
15.8037
15.9711
15.6368
15.7787
15.9246
16.0781
16.246
16.4339
16.6193
17.0123
16.7618
17.1476
17.4685
17.2486
18.5928
18.7566
19.9553
19.8253
19.6517
19.4738
19.2904
19.0993
18.9254
19.9434
19.7999
19.6411
19.4387
19.2437
19.0409
18.842
18.6571
18.4788
18.3082
18.1433
18.3932
18.1874
18.026
17.9315
17.7691
17.6132
17.8114
17.6536
17.4347
17.2839
15.9477
16.1241
16.3037
16.4744
15.7813
15.6235
15.4712
15.4972
15.6722
15.8475
16.025
16.2083
16.4018
15.3224
16.6072
16.8458
17.0687
17.1532
16.9059
16.6446
17.3898
18.5578
18.7274
19.9553
19.8253
19.6517
19.4738
19.2904
19.0993
18.9254
19.9434
19.7999
19.6411
19.4387
19.2437
19.0409
18.842
18.6571
18.4788
18.3082
18.1433
18.3932
18.1874
18.026
17.9315
17.7691
17.6132
17.8114
17.6536
17.4347
17.2839
17.0687
16.8458
16.4018
16.6072
16.2083
16.025
15.8475
15.4972
15.6722
15.3224
15.4712
15.6235
15.7813
15.9477
16.1241
16.3037
16.4744
17.1532
16.9059
16.6446
17.3898
18.5578
18.7274
19.9549
19.8237
19.6484
19.4682
19.2785
19.0806
18.9017
19.9539
19.8473
19.8181
19.6337
19.4559
19.233
19.0278
18.8356
18.6465
18.4546
18.2721
18.0987
18.3533
18.1425
17.9747
17.8818
17.7122
17.5473
17.7544
17.5901
17.3648
17.2191
15.6403
15.8152
15.995
16.1773
16.3674
15.4715
15.3081
15.1486
15.1755
15.3585
15.5413
15.7251
15.9119
16.1032
16.2975
14.992
16.7679
16.8871
16.4844
17.025
17.3166
17.0787
16.8351
16.5788
18.5237
18.6985
19.9549
19.8237
19.6484
19.4682
19.2785
19.0806
18.9017
19.9539
19.8473
19.8181
19.6337
19.4559
19.233
19.0278
18.8356
18.6465
18.4546
18.2721
18.0987
18.3533
18.1425
17.9747
17.8818
17.7122
17.5473
17.7544
17.5901
17.3648
17.2191
17.025
16.8871
16.1032
16.2975
16.7679
16.4844
15.9119
15.7251
15.5413
15.1755
15.3585
14.992
15.1486
15.3081
15.4715
15.6403
15.8152
15.995
16.1773
16.3674
17.3166
17.0787
16.8351
16.5788
18.5237
18.6985
19.9547
19.824
19.651
19.4661
19.2645
19.0604
18.8775
19.9568
19.9532
19.8204
19.6654
19.6193
19.4159
19.211
19.0112
18.8151
18.6673
18.4503
18.2429
18.057
18.3144
18.0996
17.9251
17.8332
17.6569
17.4853
17.7012
17.5274
17.2928
17.135
15.3223
15.5004
15.6829
15.871
16.0692
16.2855
15.1481
14.9774
14.8097
14.8372
15.0291
15.2203
15.4119
15.6045
15.7987
15.9945
16.1905
14.6446
16.9728
16.6713
17.0408
16.3876
17.2537
17.0252
16.8227
16.5276
16.7368
18.4902
18.6698
19.9547
19.824
19.651
19.4661
19.2645
19.0604
18.8775
19.9568
19.9532
19.8204
19.6654
19.6193
19.4159
19.211
19.0112
18.8151
18.6673
18.4503
18.2429
18.057
18.3144
18.0996
17.9251
17.8332
17.6569
17.4853
17.7012
17.5274
17.2928
17.135
17.0408
15.7987
15.9945
16.1905
16.9728
16.6713
16.3876
15.6045
15.4119
15.2203
14.8372
15.0291
14.6446
14.8097
14.9774
15.1481
15.3223
15.5004
15.6829
15.871
16.0692
16.2855
17.2537
17.0252
16.8227
16.5276
16.7368
18.4902
18.6698
19.9557
19.8316
19.6702
19.4537
19.2465
19.0412
18.8536
19.9529
19.816
19.8016
19.599
19.3955
19.1927
18.9898
18.7805
18.6041
18.385
18.2052
18.0155
18.2772
18.0598
17.8796
17.7849
17.6023
17.4254
17.656
17.4716
17.2343
14.9912
15.1753
15.3625
15.555
15.7568
15.9721
16.2014
14.8094
14.63
14.4531
14.4808
14.6827
14.8836
15.0844
15.2849
15.4857
15.688
15.8935
16.1062
14.2783
17.1114
17.2251
16.8421
16.5688
16.3172
17.1904
16.9583
16.7466
16.432
16.8492
18.458
18.6433
19.9557
19.8316
19.6702
19.4537
19.2465
19.0412
18.8536
19.9529
19.816
19.8016
19.599
19.3955
19.1927
18.9898
18.7805
18.6041
18.385
18.2052
18.0155
18.2772
18.0598
17.8796
17.7849
17.6023
17.4254
17.656
17.4716
17.2343
15.4857
15.688
15.8935
16.1062
17.1114
17.2251
16.8421
16.5688
16.3172
15.2849
15.0844
14.8836
14.4808
14.6827
14.2783
14.4531
14.63
14.8094
14.9912
15.1753
15.3625
15.555
15.7568
15.9721
16.2014
17.1904
16.9583
16.7466
16.432
16.8492
18.458
18.6433
19.961
19.8635
19.8249
19.6327
19.4315
19.2295
19.0274
18.8341
19.9506
19.9479
19.7936
19.588
19.3822
19.1766
18.9681
18.7542
18.564
18.3436
18.1576
17.9712
18.2418
18.0228
17.8403
17.7383
17.5491
17.364
17.62
17.4323
14.6448
14.8367
15.0304
15.2281
15.4336
15.65
15.8785
16.1134
14.454
14.2646
14.077
14.1049
14.3181
14.5303
14.7416
14.9519
15.1616
15.3727
15.5892
15.8222
16.1008
13.8912
17.2707
17.0058
17.3904
16.735
16.4476
17.1166
16.9927
17.0415
16.6657
16.3501
18.4287
18.6239
19.961
19.8635
19.8249
19.6327
19.4315
19.2295
19.0274
18.8341
19.9506
19.9479
19.7936
19.588
19.3822
19.1766
18.9681
18.7542
18.564
18.3436
18.1576
17.9712
18.2418
18.0228
17.8403
17.7383
17.5491
17.364
17.62
17.4323
15.1616
15.3727
15.5892
15.8222
16.1008
17.2707
17.0058
17.3904
16.735
16.4476
14.9519
14.7416
14.5303
14.1049
14.3181
13.8912
14.077
14.2646
14.454
14.6448
14.8367
15.0304
15.2281
15.4336
15.65
15.8785
16.1134
17.1166
16.9927
17.0415
16.6657
16.3501
18.4287
18.6239
19.9599
19.9526
19.809
19.6145
19.4167
19.2176
19.0219
18.8256
19.9462
19.789
19.5809
19.3723
19.1633
18.9513
18.7337
18.5349
18.3109
18.1175
17.9276
18.2069
17.9815
17.8076
17.6966
17.5024
17.3043
17.6145
14.2818
14.4827
14.6843
14.8887
15.0996
15.3193
15.55
15.79
16.0343
14.0807
13.8795
13.6793
13.7072
13.9334
14.1587
14.3825
14.6045
14.8246
15.0444
15.2678
15.5023
15.7578
16.0218
16.341
13.4809
17.4412
17.5187
17.1849
16.919
16.6417
17.1611
17.2588
16.8835
17.2586
16.5847
16.2792
18.4033
18.6217
19.9599
19.9526
19.809
19.6145
19.4167
19.2176
19.0219
18.8256
19.9462
19.789
19.5809
19.3723
19.1633
18.9513
18.7337
18.5349
18.3109
18.1175
17.9276
18.2069
17.9815
17.8076
17.6966
17.5024
17.3043
17.6145
14.8246
15.0444
15.2678
15.5023
15.7578
16.0218
16.341
17.4412
17.5187
17.1849
16.919
16.6417
14.6045
14.3825
14.1587
13.7072
13.9334
13.4809
13.6793
13.8795
14.0807
14.2818
14.4827
14.6843
14.8887
15.0996
15.3193
15.55
15.79
16.0343
17.1611
17.2588
16.8835
17.2586
16.5847
16.2792
18.4033
18.6217
19.9496
19.8019
19.6062
19.4081
19.2057
19.0021
18.848
19.9453
19.7863
19.5761
19.3653
19.1543
18.9389
18.7164
18.5103
18.2817
18.0816
17.8872
18.1675
17.9317
17.7566
17.6547
17.4678
13.9019
14.1126
14.3228
14.5359
14.7543
14.9799
15.2149
15.4602
15.7123
15.9665
13.6881
13.4721
13.2566
13.285
13.5264
13.7672
14.0059
14.2417
14.474
14.7031
14.9322
15.1667
15.4107
15.6565
15.8786
16.1962
16.3223
16.5743
13.0434
17.6328
17.6903
17.3782
17.1166
16.8476
17.3571
17.0918
17.4193
16.814
16.5232
16.2233
18.3658
18.7828
18.5547
19.9496
19.8019
19.6062
19.4081
19.2057
19.0021
18.848
19.9453
19.7863
19.5761
19.3653
19.1543
18.9389
18.7164
18.5103
18.2817
18.0816
17.8872
18.1675
17.9317
17.7566
17.6547
17.4678
14.474
14.7031
14.9322
15.1667
15.4107
15.6565
15.8786
16.1962
16.3223
16.5743
17.6328
17.6903
17.3782
17.1166
16.8476
14.2417
14.0059
13.7672
13.285
13.5264
13.2566
13.0434
13.4721
13.6881
13.9019
14.1126
14.3228
14.5359
14.7543
14.9799
15.2149
15.4602
15.7123
15.9665
17.3571
17.0918
17.4193
16.814
16.5232
16.2233
18.3658
18.7828
18.5547
19.9486
19.8011
19.6078
19.4048
19.1877
18.9673
19.9448
19.7848
19.5734
19.3626
19.1503
18.929
18.6998
18.4879
18.2542
18.0477
17.8476
18.1224
17.8803
17.6082
13.5046
13.7269
13.9441
14.1662
14.3962
14.6309
14.8727
15.1237
15.3822
15.6445
15.9098
13.2738
13.0387
12.8038
12.8348
13.094
13.3521
13.6089
13.8623
14.1097
14.3501
14.5862
14.8228
15.0634
15.306
15.5418
16.1011
15.7717
16.416
16.5011
16.782
12.5727
17.8361
17.5843
17.3235
17.056
17.562
17.3061
17.0405
16.7655
16.4821
16.187
18.3181
18.742
18.5148
19.9486
19.8011
19.6078
19.4048
19.1877
18.9673
19.9448
19.7848
19.5734
19.3626
19.1503
18.929
18.6998
18.4879
18.2542
18.0477
17.8476
18.1224
17.8803
17.6082
14.1097
14.3501
14.5862
14.8228
15.0634
15.306
15.5418
16.1011
15.7717
16.416
16.5011
16.782
17.8361
17.5843
17.3235
17.056
13.8623
13.6089
13.3521
12.8348
13.094
12.8038
13.0387
12.5727
13.2738
13.5046
13.7269
13.9441
14.1662
14.3962
14.6309
14.8727
15.1237
15.3822
15.6445
15.9098
17.562
17.3061
17.0405
16.7655
16.4821
16.187
18.3181
18.742
18.5148
19.95
19.81
19.6292
19.3911
19.165
18.9407
19.9446
19.7848
19.5755
19.3687
19.1521
18.9178
18.6815
18.4656
18.2272
18.0156
17.8084
18.0791
13.086
13.3273
13.5472
13.7722
14.0224
14.2719
14.5239
14.7812
15.0446
15.3114
15.5813
15.8621
12.8326
12.5729
12.3124
12.3495
12.6327
12.9092
13.1875
13.4641
13.7311
13.986
14.2315
14.4726
14.7141
14.9577
15.1981
15.4346
16.3466
16.0216
15.6595
16.6516
16.7149
16.9979
12.0557
18.0479
17.8022
17.5387
17.2713
17.7717
17.5216
17.2649
17.0031
16.7378
16.4719
16.1801
18.2837
18.7158
18.4916
19.95
19.81
19.6292
19.3911
19.165
18.9407
19.9446
19.7848
19.5755
19.3687
19.1521
18.9178
18.6815
18.4656
18.2272
18.0156
17.8084
18.0791
13.7311
13.986
14.2315
14.4726
14.7141
14.9577
15.1981
15.4346
16.3466
16.0216
15.6595
16.6516
16.7149
16.9979
18.0479
17.8022
17.5387
17.2713
13.4641
13.1875
12.9092
12.3495
12.6327
12.3124
12.5729
12.8326
12.0557
13.086
13.3273
13.5472
13.7722
14.0224
14.2719
14.5239
14.7812
15.0446
15.3114
15.5813
15.8621
17.7717
17.5216
17.2649
17.0031
16.7378
16.4719
16.1801
18.2837
18.7158
18.4916
19.9556
19.8452
19.8027
19.5893
19.3675
19.1448
18.921
19.9453
19.7893
19.5888
19.3963
19.1435
18.902
18.6617
18.4426
18.2004
17.9846
12.6408
12.9075
13.1491
13.3335
13.6303
13.902
14.1673
14.4328
14.7019
14.9713
15.2375
15.4941
16.0245
15.6891
12.3582
12.0642
11.7649
11.8126
12.1401
12.4352
12.7309
13.0429
13.3362
13.6107
13.869
14.117
14.3616
14.6086
14.8539
15.0909
15.3133
16.6033
16.2996
15.9777
15.3665
15.6783
16.9423
16.8938
17.2204
11.4616
18.2672
18.0407
17.7597
17.4905
17.7375
17.4854
17.2304
16.9786
16.7523
16.3547
16.6526
18.6984
18.4822
19.9556
19.8452
19.8027
19.5893
19.3675
19.1448
18.921
19.9453
19.7893
19.5888
19.3963
19.1435
18.902
18.6617
18.4426
18.2004
17.9846
13.3362
13.6107
13.869
14.117
14.3616
14.6086
14.8539
15.0909
15.3133
16.6033
16.2996
15.9777
15.3665
15.6783
16.9423
16.8938
17.2204
18.2672
18.0407
17.7597
17.4905
13.0429
12.7309
12.4352
11.8126
12.1401
11.7649
12.0642
12.3582
12.6408
11.4616
12.9075
13.1491
13.3335
13.6303
13.902
14.1673
14.4328
14.7019
14.9713
15.2375
15.4941
16.0245
15.6891
17.7375
17.4854
17.2304
16.9786
16.7523
16.3547
16.6526
18.6984
18.4822
19.9546
19.9469
19.7865
19.5707
19.3513
19.1294
18.9056
19.947
19.801
19.6321
19.586
19.3594
19.1242
18.8839
18.6412
18.4192
18.1744
17.955
12.1636
12.4632
12.7326
12.9546
12.9214
13.2362
13.5241
13.8026
14.0781
14.355
14.6299
14.899
15.158
15.3865
16.2258
15.8439
15.4633
11.8394
11.4898
11.1162
11.1885
11.5939
11.9436
12.212
12.5936
12.9233
13.2223
13.4983
13.7559
14.0036
14.2544
14.5086
14.7585
15.0125
16.5855
16.8629
16.2579
15.9605
15.1185
15.4199
15.6946
17.1732
17.1352
17.4429
10.6974
18.2899
18.2182
17.9671
17.7068
17.7049
17.4505
17.1941
16.9352
16.5739
16.8731
18.6825
18.4598
19.9546
19.9469
19.7865
19.5707
19.3513
19.1294
18.9056
19.947
19.801
19.6321
19.586
19.3594
19.1242
18.8839
18.6412
18.4192
18.1744
17.955
12.9233
13.2223
13.4983
13.7559
14.0036
14.2544
14.5086
14.7585
15.0125
16.5855
16.8629
16.2579
15.9605
15.1185
15.4199
15.6946
17.1732
17.1352
17.4429
18.2899
18.2182
17.9671
17.7068
12.5936
12.212
11.9436
11.1885
11.5939
11.1162
11.4898
11.8394
12.1636
12.4632
10.6974
12.7326
12.9546
12.9214
13.2362
13.5241
13.8026
14.0781
14.355
14.6299
14.899
15.158
15.3865
16.2258
15.8439
15.4633
17.7049
17.4505
17.1941
16.9352
16.5739
16.8731
18.6825
18.4598
19.9435
19.7791
19.5612
19.3414
19.1189
18.893
19.9486
19.8012
19.7888
19.5744
19.3502
19.1095
18.8666
18.6213
18.3963
18.1486
17.9259
11.6374
11.9949
12.3063
12.599
12.5104
12.8336
13.1379
13.4291
13.7154
14.0016
14.2847
14.562
14.8345
15.1181
16.542
16.2798
15.9758
15.66
15.3815
15.1189
11.2512
10.7704
10.331
10.5188
10.9753
11.4147
11.739
11.7468
12.1431
12.4981
12.8208
13.117
13.3901
13.6386
13.8882
14.1552
14.411
14.6474
14.8061
16.8788
16.7866
16.5004
17.1104
16.204
15.9244
14.9062
15.2044
15.4835
15.7464
17.4021
17.3679
17.6639
10.1773
18.4238
18.1743
17.9213
17.6726
17.4147
17.151
16.829
17.1086
18.6635
19.9435
19.7791
19.5612
19.3414
19.1189
18.893
19.9486
19.8012
19.7888
19.5744
19.3502
19.1095
18.8666
18.6213
18.3963
18.1486
17.9259
12.4981
12.8208
13.117
13.3901
13.6386
13.8882
14.1552
14.411
14.6474
14.8061
16.8788
16.7866
16.5004
17.1104
16.204
15.9244
14.9062
15.2044
15.4835
15.7464
17.4021
17.3679
17.6639
18.4238
18.1743
17.9213
12.1431
11.7468
11.739
11.4147
10.5188
10.9753
10.331
10.7704
11.2512
11.6374
11.9949
12.3063
10.1773
12.599
12.5104
12.8336
13.1379
13.4291
13.7154
14.0016
14.2847
14.562
14.8345
15.1181
16.542
16.2798
15.9758
15.66
15.3815
15.1189
17.6726
17.4147
17.151
16.829
17.1086
18.6635
19.9422
19.776
19.5572
19.3374
19.1135
18.8839
19.9473
19.9459
19.7924
19.5962
19.3421
19.0971
18.8507
18.6018
18.3735
18.1228
17.8969
11.0241
11.4929
11.8487
12.1732
12.0841
12.4273
12.744
13.047
13.3439
13.6399
13.9318
14.216
14.4935
14.7777
16.8135
16.5637
16.3308
16.0526
15.7675
15.4801
15.1834
14.8553
10.6221
10.2011
10.1362
10.2369
10.8668
11.3233
11.2935
11.6934
12.0657
12.4085
12.7241
13.0137
13.2763
13.4915
13.797
14.0685
14.3153
14.5216
14.5647
17.0679
17.0095
16.733
16.4697
17.3312
16.2466
16.0104
14.7292
15.0174
15.297
15.5679
15.8373
17.6285
17.5953
17.8873
18.6465
18.398
18.1433
17.6405
17.3785
17.0783
17.3459
19.9422
19.776
19.5572
19.3374
19.1135
18.8839
19.9473
19.9459
19.7924
19.5962
19.3421
19.0971
18.8507
18.6018
18.3735
18.1228
17.8969
12.0657
12.4085
12.7241
13.0137
13.2763
13.4915
13.797
14.0685
14.3153
14.5216
14.5647
17.0679
17.0095
16.733
16.4697
17.3312
16.2466
16.0104
14.7292
15.0174
15.297
15.5679
15.8373
17.6285
17.5953
17.8873
18.6465
18.398
18.1433
11.6934
11.3233
11.2935
10.8668
10.1362
10.2369
10.2011
10.6221
11.0241
11.4929
11.8487
12.1732
12.0841
12.4273
12.744
13.047
13.3439
13.6399
13.9318
14.216
14.4935
14.7777
16.8135
16.5637
16.3308
16.0526
15.7675
15.4801
15.1834
14.8553
17.6405
17.3785
17.0783
17.3459
19.9422
19.7761
19.5593
19.3405
19.1146
18.883
19.9515
19.8321
19.7899
19.5671
19.3343
19.086
18.8355
18.5828
18.351
18.0981
17.8685
10.5056
10.4448
10.9802
11.379
11.687
11.6665
12.0215
12.3471
12.6577
12.9633
13.2686
13.5712
13.8637
14.1389
14.3914
14.5743
17.0636
16.8298
16.6077
16.3783
16.1177
15.8488
15.574
15.2921
15.0058
14.5261
14.7406
10.1393
10.1675
10.1184
10.3968
10.8616
10.844
11.2462
11.6265
11.9869
12.3221
12.6296
12.9069
13.1365
13.1422
13.4491
13.7333
13.9999
14.2595
14.4585
14.2227
17.2864
17.2362
16.9607
16.6989
16.4296
17.5589
16.112
14.5398
14.8345
15.1173
15.3912
15.6618
15.9325
17.8584
17.8312
18.1183
18.6385
18.3769
17.6097
17.3193
17.5814
19.9422
19.7761
19.5593
19.3405
19.1146
18.883
19.9515
19.8321
19.7899
19.5671
19.3343
19.086
18.8355
18.5828
18.351
18.0981
17.8685
11.6265
11.9869
12.3221
12.6296
12.9069
13.1365
13.1422
13.4491
13.7333
13.9999
14.2595
14.4585
14.2227
17.2864
17.2362
16.9607
16.6989
16.4296
17.5589
16.112
14.5398
14.8345
15.1173
15.3912
15.6618
15.9325
17.8584
17.8312
18.1183
18.6385
18.3769
11.2462
10.8616
10.844
10.3968
10.1675
10.1184
10.1393
10.4448
10.5056
10.9802
11.379
11.687
11.6665
12.0215
12.3471
12.6577
12.9633
13.2686
13.5712
13.8637
14.1389
14.3914
14.5743
17.0636
16.8298
16.6077
16.3783
16.1177
15.8488
15.574
15.2921
15.0058
14.5261
14.7406
17.6097
17.3193
17.5814
19.943
19.7807
19.5708
19.3538
19.1261
18.9045
19.9512
19.945
19.7879
19.5877
19.33
19.0799
18.8208
18.5674
18.3306
18.0762
17.8417
10.1226
10.1282
10.4854
10.905
11.2316
11.273
11.2527
11.6182
11.9511
12.2658
12.5751
12.8871
13.2011
13.5081
13.7938
14.0506
14.2844
17.2984
17.0667
16.9139
16.6149
16.4482
16.1931
15.9287
15.6606
15.3865
15.1082
14.8208
14.2199
14.494
10.1075
10.4198
10.4149
10.8082
11.1847
11.5546
11.9097
12.24
12.5446
12.8313
12.7885
13.0979
13.3945
13.6755
13.9469
14.2228
13.9108
17.5167
17.4666
17.1794
16.9294
16.7517
16.2101
16.4811
17.7989
14.3236
14.645
14.9363
15.2129
15.4839
15.7548
16.024
18.0983
18.0851
18.3577
18.6209
17.5549
17.817
19.943
19.7807
19.5708
19.3538
19.1261
18.9045
19.9512
19.945
19.7879
19.5877
19.33
19.0799
18.8208
18.5674
18.3306
18.0762
17.8417
11.1847
11.5546
11.9097
12.24
12.5446
12.8313
12.7885
13.0979
13.3945
13.6755
13.9469
14.2228
13.9108